REMARK SMILES CCn1c(-c2cc(N3CCN(C)CC3)cnc2[C@H](C)OC)c2c3cc(ccc31)-c1csc(n1)C[C@H](NC(=O)[C@H]1C[C@@H]1C)C(=O)N1CCC[C@H](N1)C(=O)OCC(C)(C)C2
REMARK SMILES IDX 34 1 32 2 29 3 30 4 33 5 31 6 25 7 3 8 28 9 4 10 23 11 27 12
REMARK SMILES IDX 22 13 24 14 26 15 2 16 1 17 5 18 17 19 6 20 16 21 7 22 15 23
REMARK SMILES IDX 18 24 19 25 20 26 21 27 8 28 14 29 9 30 13 31 10 32 11 33
REMARK SMILES IDX 12 34 58 35 55 36 56 37 57 38 35 40 43 41 44 42 45 43 46 44
REMARK SMILES IDX 50 45 47 46 49 47 48 48 51 50 52 51 53 52 54 53 36 55 37 56
REMARK SMILES IDX 38 57 39 59 40 60 41 61 42 62
REMARK H PARENT 50 49 36 58
REMARK Flexibility Score:  160.900
ROOT
ATOM      1  C   UNL     1      27.108  26.450   8.816  1.00  0.00     0.102 C 
ENDROOT
BRANCH   1   2
ATOM      2  C   UNL     1      26.623  25.247   9.563  1.00  0.00     0.096 A 
ATOM      3  C   UNL     1      26.398  23.794  11.214  1.00  0.00     0.081 A 
ATOM      4  C   UNL     1      25.556  23.210  10.329  1.00  0.00     0.095 A 
ATOM      5  N   UNL     1      27.066  24.919  10.742  1.00  0.00    -0.241 NA
ATOM      6  S   UNL     1      25.396  24.198   8.943  1.00  0.00    -0.127 S 
BRANCH   3   7
ATOM      7  C   UNL     1      26.684  23.383  12.602  1.00  0.00     0.002 A 
ATOM      8  N   UNL     1      27.466  22.432  16.536  1.00  0.00    -0.340 N 
ATOM      9  C   UNL     1      27.156  22.577  15.198  1.00  0.00     0.049 A 
ATOM     10  C   UNL     1      28.055  23.600  16.989  1.00  0.00     0.054 A 
ATOM     11  C   UNL     1      27.535  23.872  14.799  1.00  0.00     0.004 A 
ATOM     12  C   UNL     1      26.530  21.685  14.333  1.00  0.00     0.027 A 
ATOM     13  C   UNL     1      28.111  24.514  15.938  1.00  0.00    -0.014 A 
ATOM     14  C   UNL     1      27.290  24.274  13.481  1.00  0.00     0.021 A 
ATOM     15  C   UNL     1      26.315  22.112  13.041  1.00  0.00     0.012 A 
BRANCH   8  16
ATOM     16  C   UNL     1      27.253  21.188  17.272  1.00  0.00     0.119 C 
ATOM     17  C   UNL     1      28.345  20.208  16.951  1.00  0.00     0.027 C 
ENDBRANCH   8  16
BRANCH  10  18
ATOM     18  C   UNL     1      28.593  23.777  18.341  1.00  0.00     0.025 A 
ATOM     19  C   UNL     1      27.779  23.791  19.497  1.00  0.00     0.078 A 
ATOM     20  C   UNL     1      29.967  23.953  18.485  1.00  0.00     0.039 A 
ATOM     21  N   UNL     1      28.312  23.969  20.713  1.00  0.00    -0.256 NA
ATOM     22  C   UNL     1      30.499  24.152  19.749  1.00  0.00     0.056 A 
ATOM     23  C   UNL     1      29.640  24.141  20.837  1.00  0.00     0.137 A 
BRANCH  19  24
ATOM     24  C   UNL     1      26.270  23.620  19.452  1.00  0.00     0.164 C 
ATOM     25  C   UNL     1      25.618  24.688  20.303  1.00  0.00     0.045 C 
BRANCH  24  26
ATOM     26  O   UNL     1      25.959  22.345  20.014  1.00  0.00    -0.375 OA
ATOM     27  C   UNL     1      24.596  21.976  19.870  1.00  0.00     0.195 C 
ENDBRANCH  24  26
ENDBRANCH  19  24
BRANCH  22  28
ATOM     28  N   UNL     1      31.863  24.308  19.925  1.00  0.00    -0.368 N 
ATOM     29  C   UNL     1      32.504  24.145  21.239  1.00  0.00     0.132 C 
ATOM     30  C   UNL     1      32.761  24.467  18.776  1.00  0.00     0.132 C 
ATOM     31  C   UNL     1      33.742  24.999  21.403  1.00  0.00     0.105 C 
ATOM     32  C   UNL     1      33.966  25.325  19.081  1.00  0.00     0.105 C 
ATOM     33  N   UNL     1      34.649  24.831  20.271  1.00  0.00    -0.303 NA
ATOM     34  C   UNL     1      35.898  25.564  20.484  1.00  0.00     0.105 C 
ENDBRANCH  22  28
ENDBRANCH  10  18
BRANCH  13  35
ATOM     35  C   UNL     1      28.696  25.898  15.972  1.00  0.00     0.048 C 
BRANCH  35  36
ATOM     36  C   UNL     1      27.713  27.016  16.350  1.00  0.00     0.003 CG0
ATOM     37  C   UNL     1      28.500  28.327  16.317  1.00  0.00     0.015 C 
ATOM     38  C   UNL     1      27.163  26.812  17.765  1.00  0.00     0.015 C 
ATOM     39  G   UNL     1      26.550  27.085  15.365  1.00  0.00     0.000 G0
ENDBRANCH  35  36
ENDBRANCH  13  35
ENDBRANCH   3   7
ENDBRANCH   1   2
BRANCH   1  40
ATOM     40  C   UNL     1      25.951  27.413   8.508  1.00  0.00     0.179 C 
BRANCH  40  41
ATOM     41  C   UNL     1      26.451  28.844   8.610  1.00  0.00     0.259 C 
ATOM     42  O   UNL     1      26.897  29.448   7.642  1.00  0.00    -0.271 OA
BRANCH  41  43
ATOM     43  N   UNL     1      26.449  29.432   9.848  1.00  0.00    -0.275 N 
ATOM     44  C   UNL     1      27.058  30.739  10.142  1.00  0.00     0.140 C 
ATOM     45  N   UNL     1      25.861  28.749  10.938  1.00  0.00    -0.218 NA
ATOM     46  C   UNL     1      28.195  30.490  11.113  1.00  0.00     0.025 C 
ATOM     47  C   UNL     1      26.889  28.488  11.959  1.00  0.00     0.184 C 
ATOM     48  C   UNL     1      27.645  29.771  12.341  1.00  0.00     0.035 C 
ATOM     49  H   UNL     1      25.112  29.328  11.344  1.00  0.00     0.149 HD
BRANCH  47  50
ATOM     50  C   UNL     1      26.226  27.891  13.175  1.00  0.00     0.324 C 
ATOM     51  O   UNL     1      25.033  27.747  13.300  1.00  0.00    -0.250 OA
BRANCH  50  52
ATOM     52  O   UNL     1      27.122  27.549  14.108  1.00  0.00    -0.464 OA
BRANCH  52  53
ATOM     53  C   UNL     1      26.550  27.085  15.365  1.00  0.00     0.239 CG0
ATOM     54  G   UNL     1      27.713  27.016  16.350  1.00  0.00     0.000 G0
ENDBRANCH  52  53
ENDBRANCH  50  52
ENDBRANCH  47  50
ENDBRANCH  41  43
ENDBRANCH  40  41
BRANCH  40  55
ATOM     55  N   UNL     1      25.329  27.127   7.227  1.00  0.00    -0.344 N 
ATOM     56  C   UNL     1      24.052  27.457   6.975  1.00  0.00     0.224 C 
ATOM     57  O   UNL     1      23.260  27.762   7.862  1.00  0.00    -0.275 OA
ATOM     58  H   UNL     1      25.881  26.660   6.494  1.00  0.00     0.164 HD
BRANCH  56  59
ATOM     59  C   UNL     1      23.666  27.525   5.552  1.00  0.00     0.081 C 
ATOM     60  C   UNL     1      22.195  27.495   5.243  1.00  0.00     0.018 C 
ATOM     61  C   UNL     1      22.935  28.769   5.066  1.00  0.00    -0.001 C 
ATOM     62  C   UNL     1      23.190  29.334   3.685  1.00  0.00     0.008 C 
ENDBRANCH  56  59
ENDBRANCH  40  55
ENDBRANCH   1  40
TORSDOF 7
