REMARK SMILES CCn1c(-c2cc(N3CCN(C)CC3)cnc2[C@H](C)OC)c2c3cc(ccc31)-c1csc(n1)C[C@H](NC(=O)[C@H]1C[C@@H]1C)C(=O)N1CCC[C@H](N1)C(=O)OCC(C)(C)C2
REMARK SMILES IDX 30 1 32 2 34 3 35 4 43 5 46 6 47 7 48 8 49 9 51 10 54 11
REMARK SMILES IDX 55 12 56 13 57 14 58 15 28 16 22 17 4 18 23 19 24 20 25 21
REMARK SMILES IDX 26 22 27 23 29 24 3 25 45 26 50 27 33 28 44 29 52 30 53 31
REMARK SMILES IDX 31 32 2 34 1 35 5 36 17 37 6 38 16 39 7 40 15 41 18 42 19 43
REMARK SMILES IDX 20 44 21 45 8 46 14 47 9 48 13 49 10 50 11 51 12 52 36 53
REMARK SMILES IDX 37 54 38 55 39 57 40 58 41 59 42 60
REMARK H PARENT 50 33 36 56
ROOT
ATOM      1  C   UNL     1      25.556  23.210  10.329  1.00  0.00     0.095 A 
ATOM      2  C   UNL     1      26.623  25.247   9.563  1.00  0.00     0.096 A 
ATOM      3  C   UNL     1      27.108  26.450   8.816  1.00  0.00     0.102 C 
ATOM      4  C   UNL     1      25.951  27.413   8.508  1.00  0.00     0.179 C 
ATOM      5  C   UNL     1      26.451  28.844   8.610  1.00  0.00     0.259 C 
ATOM      6  C   UNL     1      27.058  30.739  10.142  1.00  0.00     0.140 C 
ATOM      7  C   UNL     1      28.195  30.490  11.113  1.00  0.00     0.025 C 
ATOM      8  C   UNL     1      27.645  29.771  12.341  1.00  0.00     0.035 C 
ATOM      9  C   UNL     1      26.889  28.488  11.959  1.00  0.00     0.184 C 
ATOM     10  C   UNL     1      26.226  27.891  13.175  1.00  0.00     0.324 C 
ATOM     11  C   UNL     1      26.550  27.085  15.365  1.00  0.00     0.239 C 
ATOM     12  C   UNL     1      27.713  27.016  16.350  1.00  0.00     0.003 C 
ATOM     13  C   UNL     1      28.500  28.327  16.317  1.00  0.00     0.015 C 
ATOM     14  C   UNL     1      27.163  26.812  17.765  1.00  0.00     0.015 C 
ATOM     15  C   UNL     1      28.696  25.898  15.972  1.00  0.00     0.048 C 
ATOM     16  C   UNL     1      27.156  22.577  15.198  1.00  0.00     0.049 A 
ATOM     17  C   UNL     1      28.111  24.514  15.938  1.00  0.00    -0.014 A 
ATOM     18  C   UNL     1      28.055  23.600  16.989  1.00  0.00     0.054 A 
ATOM     19  C   UNL     1      27.535  23.872  14.799  1.00  0.00     0.004 A 
ATOM     20  C   UNL     1      27.290  24.274  13.481  1.00  0.00     0.021 A 
ATOM     21  C   UNL     1      26.684  23.383  12.602  1.00  0.00     0.002 A 
ATOM     22  C   UNL     1      26.315  22.112  13.041  1.00  0.00     0.012 A 
ATOM     23  C   UNL     1      26.530  21.685  14.333  1.00  0.00     0.027 A 
ATOM     24  C   UNL     1      26.398  23.794  11.214  1.00  0.00     0.081 A 
ATOM     25  N   UNL     1      27.466  22.432  16.536  1.00  0.00    -0.340 N 
ATOM     26  N   UNL     1      26.449  29.432   9.848  1.00  0.00    -0.275 N 
ATOM     27  N   UNL     1      25.861  28.749  10.938  1.00  0.00    -0.218 NA
ATOM     28  N   UNL     1      27.066  24.919  10.742  1.00  0.00    -0.241 NA
ATOM     29  O   UNL     1      26.897  29.448   7.642  1.00  0.00    -0.271 OA
ATOM     30  O   UNL     1      25.033  27.747  13.300  1.00  0.00    -0.250 OA
ATOM     31  O   UNL     1      27.122  27.549  14.108  1.00  0.00    -0.464 OA
ATOM     32  S   UNL     1      25.396  24.198   8.943  1.00  0.00    -0.127 S 
ATOM     33  H   UNL     1      25.112  29.328  11.344  1.00  0.00     0.149 HD
ENDROOT
BRANCH  25  34
ATOM     34  C   UNL     1      27.253  21.188  17.272  1.00  0.00     0.119 C 
ATOM     35  C   UNL     1      28.345  20.208  16.951  1.00  0.00     0.027 C 
ENDBRANCH  25  34
BRANCH  18  36
ATOM     36  C   UNL     1      28.593  23.777  18.341  1.00  0.00     0.025 A 
ATOM     37  C   UNL     1      27.779  23.791  19.497  1.00  0.00     0.078 A 
ATOM     38  C   UNL     1      29.967  23.953  18.485  1.00  0.00     0.039 A 
ATOM     39  N   UNL     1      28.312  23.969  20.713  1.00  0.00    -0.256 NA
ATOM     40  C   UNL     1      30.499  24.152  19.749  1.00  0.00     0.056 A 
ATOM     41  C   UNL     1      29.640  24.141  20.837  1.00  0.00     0.137 A 
BRANCH  37  42
ATOM     42  C   UNL     1      26.270  23.620  19.452  1.00  0.00     0.164 C 
ATOM     43  C   UNL     1      25.618  24.688  20.303  1.00  0.00     0.045 C 
BRANCH  42  44
ATOM     44  O   UNL     1      25.959  22.345  20.014  1.00  0.00    -0.375 OA
ATOM     45  C   UNL     1      24.596  21.976  19.870  1.00  0.00     0.195 C 
ENDBRANCH  42  44
ENDBRANCH  37  42
BRANCH  40  46
ATOM     46  N   UNL     1      31.863  24.308  19.925  1.00  0.00    -0.368 N 
ATOM     47  C   UNL     1      32.504  24.145  21.239  1.00  0.00     0.132 C 
ATOM     48  C   UNL     1      32.761  24.467  18.776  1.00  0.00     0.132 C 
ATOM     49  C   UNL     1      33.742  24.999  21.403  1.00  0.00     0.105 C 
ATOM     50  C   UNL     1      33.966  25.325  19.081  1.00  0.00     0.105 C 
ATOM     51  N   UNL     1      34.649  24.831  20.271  1.00  0.00    -0.303 NA
ATOM     52  C   UNL     1      35.898  25.564  20.484  1.00  0.00     0.105 C 
ENDBRANCH  40  46
ENDBRANCH  18  36
BRANCH   4  53
ATOM     53  N   UNL     1      25.329  27.127   7.227  1.00  0.00    -0.344 N 
ATOM     54  C   UNL     1      24.052  27.457   6.975  1.00  0.00     0.224 C 
ATOM     55  O   UNL     1      23.260  27.762   7.862  1.00  0.00    -0.275 OA
ATOM     56  H   UNL     1      25.881  26.660   6.494  1.00  0.00     0.164 HD
BRANCH  54  57
ATOM     57  C   UNL     1      23.666  27.525   5.552  1.00  0.00     0.081 C 
ATOM     58  C   UNL     1      22.195  27.495   5.243  1.00  0.00     0.018 C 
ATOM     59  C   UNL     1      22.935  28.769   5.066  1.00  0.00    -0.001 C 
ATOM     60  C   UNL     1      23.190  29.334   3.685  1.00  0.00     0.008 C 
ENDBRANCH  54  57
ENDBRANCH   4  53
TORSDOF 7
