MODEL 1
REMARK VINA RESULT:    -5.692      0.000      0.000
REMARK INTER + INTRA:         -16.068
REMARK INTER:                 -11.348
REMARK INTRA:                  -4.720
REMARK UNBOUND:                -4.720
REMARK SMILES CCn1c(-c2cc(N3CCN(C)CC3)cnc2[C@H](C)OC)c2c3cc(ccc31)-c1csc(n1)C[C@H](NC(=O)[C@H]1C[C@@H]1C)C(=O)N1CCC[C@H](N1)C(=O)OCC(C)(C)C2
REMARK SMILES IDX 34 1 32 2 29 3 30 4 33 5 31 6 25 7 3 8 28 9 4 10 23 11 27 12
REMARK SMILES IDX 22 13 24 14 26 15 2 16 1 17 5 18 17 19 6 20 16 21 7 22 15 23
REMARK SMILES IDX 18 24 19 25 20 26 21 27 8 28 14 29 9 30 13 31 10 32 11 33
REMARK SMILES IDX 12 34 58 35 55 36 56 37 57 38 35 40 43 41 44 42 45 43 46 44
REMARK SMILES IDX 50 45 47 46 49 47 48 48 51 50 52 51 53 52 54 53 36 55 37 56
REMARK SMILES IDX 38 57 39 59 40 60 41 61 42 62
REMARK H PARENT 50 49 36 58
REMARK Flexibility Score:  160.900
ROOT
ATOM      1  C   UNL     1     -21.440 -27.133   5.288  1.00  0.00     0.102 C 
ENDROOT
BRANCH   1   2
ATOM      2  C   UNL     1     -22.043 -28.411   4.794  1.00  0.00     0.096 A 
ATOM      3  C   UNL     1     -22.152 -30.452   3.952  1.00  0.00     0.081 A 
ATOM      4  C   UNL     1     -23.479 -30.245   4.123  1.00  0.00     0.095 A 
ATOM      5  N   UNL     1     -21.338 -29.369   4.266  1.00  0.00    -0.241 NA
ATOM      6  S   UNL     1     -23.734 -28.751   4.914  1.00  0.00    -0.127 S 
BRANCH   3   7
ATOM      7  C   UNL     1     -21.478 -31.677   3.480  1.00  0.00     0.002 A 
ATOM      8  N   UNL     1     -19.414 -35.008   2.200  1.00  0.00    -0.340 N 
ATOM      9  C   UNL     1     -20.247 -34.004   2.653  1.00  0.00     0.049 A 
ATOM     10  C   UNL     1     -18.235 -34.443   1.746  1.00  0.00     0.054 A 
ATOM     11  C   UNL     1     -19.573 -32.777   2.504  1.00  0.00     0.004 A 
ATOM     12  C   UNL     1     -21.513 -34.093   3.222  1.00  0.00     0.027 A 
ATOM     13  C   UNL     1     -18.300 -33.062   1.922  1.00  0.00    -0.014 A 
ATOM     14  C   UNL     1     -20.203 -31.602   2.928  1.00  0.00     0.021 A 
ATOM     15  C   UNL     1     -22.106 -32.914   3.618  1.00  0.00     0.012 A 
BRANCH   8  16
ATOM     16  C   UNL     1     -19.812 -36.414   2.160  1.00  0.00     0.119 C 
ATOM     17  C   UNL     1     -19.444 -37.088   3.451  1.00  0.00     0.027 C 
ENDBRANCH   8  16
BRANCH  10  18
ATOM     18  C   UNL     1     -17.152 -35.202   1.113  1.00  0.00     0.025 A 
ATOM     19  C   UNL     1     -17.035 -35.354  -0.287  1.00  0.00     0.078 A 
ATOM     20  C   UNL     1     -16.206 -35.809   1.936  1.00  0.00     0.039 A 
ATOM     21  N   UNL     1     -16.035 -36.067  -0.822  1.00  0.00    -0.256 NA
ATOM     22  C   UNL     1     -15.188 -36.557   1.366  1.00  0.00     0.056 A 
ATOM     23  C   UNL     1     -15.131 -36.651  -0.016  1.00  0.00     0.137 A 
BRANCH  19  24
ATOM     24  C   UNL     1     -18.017 -34.744  -1.273  1.00  0.00     0.164 C 
ATOM     25  C   UNL     1     -19.076 -35.765  -1.625  1.00  0.00     0.045 C 
BRANCH  24  26
ATOM     26  O   UNL     1     -17.295 -34.417  -2.461  1.00  0.00    -0.375 OA
ATOM     27  C   UNL     1     -17.219 -33.023  -2.716  1.00  0.00     0.195 C 
ENDBRANCH  24  26
ENDBRANCH  19  24
BRANCH  22  28
ATOM     28  N   UNL     1     -14.222 -37.154   2.157  1.00  0.00    -0.368 N 
ATOM     29  C   UNL     1     -12.838 -36.659   2.206  1.00  0.00     0.132 C 
ATOM     30  C   UNL     1     -14.576 -38.200   3.123  1.00  0.00     0.132 C 
ATOM     31  C   UNL     1     -11.829 -37.750   2.490  1.00  0.00     0.105 C 
ATOM     32  C   UNL     1     -13.474 -39.213   3.328  1.00  0.00     0.105 C 
ATOM     33  N   UNL     1     -12.223 -38.539   3.654  1.00  0.00    -0.303 NA
ATOM     34  C   UNL     1     -11.191 -39.517   4.001  1.00  0.00     0.105 C 
ENDBRANCH  22  28
ENDBRANCH  10  18
BRANCH  13  35
ATOM     35  C   UNL     1     -17.254 -32.051   1.543  1.00  0.00     0.048 C 
BRANCH  35  36
ATOM     36  C   UNL     1     -16.125 -31.860   2.566  1.00  0.00     0.003 CG0
ATOM     37  C   UNL     1     -14.876 -32.516   1.974  1.00  0.00     0.015 C 
ATOM     38  C   UNL     1     -16.459 -32.552   3.891  1.00  0.00     0.015 C 
ATOM     39  G   UNL     1     -15.860 -30.381   2.826  1.00  0.00     0.000 G0
ENDBRANCH  35  36
ENDBRANCH  13  35
ENDBRANCH   3   7
ENDBRANCH   1   2
BRANCH   1  40
ATOM     40  C   UNL     1     -20.572 -26.476   4.204  1.00  0.00     0.179 C 
BRANCH  40  41
ATOM     41  C   UNL     1     -19.156 -26.311   4.730  1.00  0.00     0.259 C 
ATOM     42  O   UNL     1     -18.897 -26.352   5.927  1.00  0.00    -0.271 OA
BRANCH  41  43
ATOM     43  N   UNL     1     -18.166 -26.048   3.820  1.00  0.00    -0.275 N 
ATOM     44  C   UNL     1     -18.009 -24.764   3.119  1.00  0.00     0.140 C 
ATOM     45  N   UNL     1     -17.241 -27.066   3.488  1.00  0.00    -0.218 NA
ATOM     46  C   UNL     1     -18.230 -25.034   1.643  1.00  0.00     0.025 C 
ATOM     47  C   UNL     1     -17.357 -27.379   2.054  1.00  0.00     0.184 C 
ATOM     48  C   UNL     1     -17.251 -26.113   1.189  1.00  0.00     0.035 C 
ATOM     49  H   UNL     1     -16.285 -26.743   3.694  1.00  0.00     0.149 HD
BRANCH  47  50
ATOM     50  C   UNL     1     -16.273 -28.358   1.682  1.00  0.00     0.324 C 
ATOM     51  O   UNL     1     -15.191 -28.045   1.245  1.00  0.00    -0.250 OA
BRANCH  50  52
ATOM     52  O   UNL     1     -16.659 -29.623   1.883  1.00  0.00    -0.464 OA
BRANCH  52  53
ATOM     53  C   UNL     1     -15.837 -30.372   2.824  1.00  0.00     0.239 CG0
ATOM     54  G   UNL     1     -16.123 -31.844   2.546  1.00  0.00     0.000 G0
ENDBRANCH  52  53
ENDBRANCH  50  52
ENDBRANCH  47  50
ENDBRANCH  41  43
ENDBRANCH  40  41
BRANCH  40  55
ATOM     55  N   UNL     1     -20.622 -27.204   2.949  1.00  0.00    -0.344 N 
ATOM     56  C   UNL     1     -21.230 -26.697   1.864  1.00  0.00     0.224 C 
ATOM     57  O   UNL     1     -21.999 -25.742   1.923  1.00  0.00    -0.275 OA
ATOM     58  H   UNL     1     -20.180 -28.132   2.888  1.00  0.00     0.164 HD
BRANCH  56  59
ATOM     59  C   UNL     1     -20.853 -27.293   0.568  1.00  0.00     0.081 C 
ATOM     60  C   UNL     1     -20.427 -28.735   0.580  1.00  0.00     0.018 C 
ATOM     61  C   UNL     1     -21.746 -28.386  -0.005  1.00  0.00    -0.001 C 
ATOM     62  C   UNL     1     -21.988 -28.494  -1.495  1.00  0.00     0.008 C 
ENDBRANCH  56  59
ENDBRANCH  40  55
ENDBRANCH   1  40
TORSDOF 7
ENDMDL
MODEL 2
REMARK VINA RESULT:    -5.232      4.570     11.253
REMARK INTER + INTRA:         -15.151
REMARK INTER:                 -11.683
REMARK INTRA:                  -3.468
REMARK UNBOUND:                -4.720
REMARK SMILES CCn1c(-c2cc(N3CCN(C)CC3)cnc2[C@H](C)OC)c2c3cc(ccc31)-c1csc(n1)C[C@H](NC(=O)[C@H]1C[C@@H]1C)C(=O)N1CCC[C@H](N1)C(=O)OCC(C)(C)C2
REMARK SMILES IDX 34 1 32 2 29 3 30 4 33 5 31 6 25 7 3 8 28 9 4 10 23 11 27 12
REMARK SMILES IDX 22 13 24 14 26 15 2 16 1 17 5 18 17 19 6 20 16 21 7 22 15 23
REMARK SMILES IDX 18 24 19 25 20 26 21 27 8 28 14 29 9 30 13 31 10 32 11 33
REMARK SMILES IDX 12 34 58 35 55 36 56 37 57 38 35 40 43 41 44 42 45 43 46 44
REMARK SMILES IDX 50 45 47 46 49 47 48 48 51 50 52 51 53 52 54 53 36 55 37 56
REMARK SMILES IDX 38 57 39 59 40 60 41 61 42 62
REMARK H PARENT 50 49 36 58
REMARK Flexibility Score:  160.900
ROOT
ATOM      1  C   UNL     1     -16.688 -30.031  -0.590  1.00  0.00     0.102 C 
ENDROOT
BRANCH   1   2
ATOM      2  C   UNL     1     -17.926 -30.492   0.113  1.00  0.00     0.096 A 
ATOM      3  C   UNL     1     -19.930 -30.394   1.043  1.00  0.00     0.081 A 
ATOM      4  C   UNL     1     -19.688 -31.710   1.248  1.00  0.00     0.095 A 
ATOM      5  N   UNL     1     -18.885 -29.683   0.461  1.00  0.00    -0.241 NA
ATOM      6  S   UNL     1     -18.217 -32.153   0.496  1.00  0.00    -0.127 S 
BRANCH   3   7
ATOM      7  C   UNL     1     -21.156 -29.636   1.359  1.00  0.00     0.002 A 
ATOM      8  N   UNL     1     -24.471 -27.403   2.368  1.00  0.00    -0.340 N 
ATOM      9  C   UNL     1     -23.451 -28.197   1.880  1.00  0.00     0.049 A 
ATOM     10  C   UNL     1     -24.152 -27.006   3.655  1.00  0.00     0.054 A 
ATOM     11  C   UNL     1     -22.454 -28.286   2.869  1.00  0.00     0.004 A 
ATOM     12  C   UNL     1     -23.317 -28.796   0.631  1.00  0.00     0.027 A 
ATOM     13  C   UNL     1     -22.908 -27.533   3.996  1.00  0.00    -0.014 A 
ATOM     14  C   UNL     1     -21.292 -29.016   2.596  1.00  0.00     0.021 A 
ATOM     15  C   UNL     1     -22.164 -29.515   0.403  1.00  0.00     0.012 A 
BRANCH   8  16
ATOM     16  C   UNL     1     -25.698 -27.135   1.621  1.00  0.00     0.119 C 
ATOM     17  C   UNL     1     -25.474 -26.007   0.655  1.00  0.00     0.027 C 
ENDBRANCH   8  16
BRANCH  10  18
ATOM     18  C   UNL     1     -25.044 -26.223   4.517  1.00  0.00     0.025 A 
ATOM     19  C   UNL     1     -25.998 -26.815   5.376  1.00  0.00     0.078 A 
ATOM     20  C   UNL     1     -24.951 -24.834   4.471  1.00  0.00     0.039 A 
ATOM     21  N   UNL     1     -26.802 -26.061   6.136  1.00  0.00    -0.256 NA
ATOM     22  C   UNL     1     -25.802 -24.070   5.253  1.00  0.00     0.056 A 
ATOM     23  C   UNL     1     -26.704 -24.721   6.080  1.00  0.00     0.137 A 
BRANCH  19  24
ATOM     24  C   UNL     1     -26.190 -28.318   5.493  1.00  0.00     0.164 C 
ATOM     25  C   UNL     1     -27.246 -28.768   4.507  1.00  0.00     0.045 C 
BRANCH  24  26
ATOM     26  O   UNL     1     -26.659 -28.595   6.813  1.00  0.00    -0.375 OA
ATOM     27  C   UNL     1     -27.163 -29.913   6.973  1.00  0.00     0.195 C 
ENDBRANCH  24  26
ENDBRANCH  19  24
BRANCH  22  28
ATOM     28  N   UNL     1     -25.719 -22.688   5.246  1.00  0.00    -0.368 N 
ATOM     29  C   UNL     1     -25.006 -21.955   4.188  1.00  0.00     0.132 C 
ATOM     30  C   UNL     1     -26.490 -21.878   6.195  1.00  0.00     0.132 C 
ATOM     31  C   UNL     1     -24.414 -20.649   4.669  1.00  0.00     0.105 C 
ATOM     32  C   UNL     1     -25.795 -20.592   6.576  1.00  0.00     0.105 C 
ATOM     33  N   UNL     1     -25.410 -19.852   5.380  1.00  0.00    -0.303 NA
ATOM     34  C   UNL     1     -24.873 -18.540   5.743  1.00  0.00     0.105 C 
ENDBRANCH  22  28
ENDBRANCH  10  18
BRANCH  13  35
ATOM     35  C   UNL     1     -22.187 -27.380   5.305  1.00  0.00     0.048 C 
BRANCH  35  36
ATOM     36  C   UNL     1     -21.137 -26.260   5.349  1.00  0.00     0.003 CG0
ATOM     37  C   UNL     1     -21.361 -25.493   6.653  1.00  0.00     0.015 C 
ATOM     38  C   UNL     1     -21.315 -25.292   4.175  1.00  0.00     0.015 C 
ATOM     39  G   UNL     1     -19.722 -26.829   5.319  1.00  0.00     0.000 G0
ENDBRANCH  35  36
ENDBRANCH  13  35
ENDBRANCH   3   7
ENDBRANCH   1   2
BRANCH   1  40
ATOM     40  C   UNL     1     -15.813 -29.172   0.336  1.00  0.00     0.179 C 
BRANCH  40  41
ATOM     41  C   UNL     1     -15.380 -30.007   1.530  1.00  0.00     0.259 C 
ATOM     42  O   UNL     1     -14.599 -30.944   1.420  1.00  0.00    -0.271 OA
BRANCH  41  43
ATOM     43  N   UNL     1     -15.944 -29.719   2.745  1.00  0.00    -0.275 N 
ATOM     44  C   UNL     1     -16.321 -30.734   3.741  1.00  0.00     0.140 C 
ATOM     45  N   UNL     1     -16.222 -28.373   3.078  1.00  0.00    -0.218 NA
ATOM     46  C   UNL     1     -17.828 -30.667   3.893  1.00  0.00     0.025 C 
ATOM     47  C   UNL     1     -17.671 -28.212   3.280  1.00  0.00     0.184 C 
ATOM     48  C   UNL     1     -18.221 -29.244   4.278  1.00  0.00     0.035 C 
ATOM     49  H   UNL     1     -15.724 -28.122   3.945  1.00  0.00     0.149 HD
BRANCH  47  50
ATOM     50  C   UNL     1     -17.941 -26.813   3.774  1.00  0.00     0.324 C 
ATOM     51  O   UNL     1     -17.085 -25.987   3.986  1.00  0.00    -0.250 OA
BRANCH  50  52
ATOM     52  O   UNL     1     -19.248 -26.599   3.962  1.00  0.00    -0.464 OA
BRANCH  52  53
ATOM     53  C   UNL     1     -19.714 -26.815   5.325  1.00  0.00     0.239 CG0
ATOM     54  G   UNL     1     -21.138 -26.270   5.369  1.00  0.00     0.000 G0
ENDBRANCH  52  53
ENDBRANCH  50  52
ENDBRANCH  47  50
ENDBRANCH  41  43
ENDBRANCH  40  41
BRANCH  40  55
ATOM     55  N   UNL     1     -14.691 -28.579  -0.369  1.00  0.00    -0.344 N 
ATOM     56  C   UNL     1     -13.935 -27.620   0.191  1.00  0.00     0.224 C 
ATOM     57  O   UNL     1     -14.285 -27.001   1.191  1.00  0.00    -0.275 OA
ATOM     58  H   UNL     1     -14.469 -28.901  -1.322  1.00  0.00     0.164 HD
BRANCH  56  59
ATOM     59  C   UNL     1     -12.603 -27.409  -0.409  1.00  0.00     0.081 C 
ATOM     60  C   UNL     1     -12.337 -26.060  -1.018  1.00  0.00     0.018 C 
ATOM     61  C   UNL     1     -11.666 -26.411   0.258  1.00  0.00    -0.001 C 
ATOM     62  C   UNL     1     -10.173 -26.657   0.310  1.00  0.00     0.008 C 
ENDBRANCH  56  59
ENDBRANCH  40  55
ENDBRANCH   1  40
TORSDOF 7
ENDMDL
MODEL 3
REMARK VINA RESULT:    -5.217      2.730      4.409
REMARK INTER + INTRA:         -15.122
REMARK INTER:                 -11.593
REMARK INTRA:                  -3.529
REMARK UNBOUND:                -4.720
REMARK SMILES CCn1c(-c2cc(N3CCN(C)CC3)cnc2[C@H](C)OC)c2c3cc(ccc31)-c1csc(n1)C[C@H](NC(=O)[C@H]1C[C@@H]1C)C(=O)N1CCC[C@H](N1)C(=O)OCC(C)(C)C2
REMARK SMILES IDX 34 1 32 2 29 3 30 4 33 5 31 6 25 7 3 8 28 9 4 10 23 11 27 12
REMARK SMILES IDX 22 13 24 14 26 15 2 16 1 17 5 18 17 19 6 20 16 21 7 22 15 23
REMARK SMILES IDX 18 24 19 25 20 26 21 27 8 28 14 29 9 30 13 31 10 32 11 33
REMARK SMILES IDX 12 34 58 35 55 36 56 37 57 38 35 40 43 41 44 42 45 43 46 44
REMARK SMILES IDX 50 45 47 46 49 47 48 48 51 50 52 51 53 52 54 53 36 55 37 56
REMARK SMILES IDX 38 57 39 59 40 60 41 61 42 62
REMARK H PARENT 50 49 36 58
REMARK Flexibility Score:  160.900
ROOT
ATOM      1  C   UNL     1     -21.291 -28.439   0.983  1.00  0.00     0.102 C 
ENDROOT
BRANCH   1   2
ATOM      2  C   UNL     1     -21.777 -29.836   1.209  1.00  0.00     0.096 A 
ATOM      3  C   UNL     1     -21.819 -32.045   1.132  1.00  0.00     0.081 A 
ATOM      4  C   UNL     1     -22.963 -31.856   1.831  1.00  0.00     0.095 A 
ATOM      5  N   UNL     1     -21.183 -30.882   0.711  1.00  0.00    -0.241 NA
ATOM      6  S   UNL     1     -23.156 -30.196   2.188  1.00  0.00    -0.127 S 
BRANCH   3   7
ATOM      7  C   UNL     1     -21.176 -33.324   0.771  1.00  0.00     0.002 A 
ATOM      8  N   UNL     1     -19.280 -36.889  -0.057  1.00  0.00    -0.340 N 
ATOM      9  C   UNL     1     -20.040 -35.746   0.099  1.00  0.00     0.049 A 
ATOM     10  C   UNL     1     -18.098 -36.742   0.648  1.00  0.00     0.054 A 
ATOM     11  C   UNL     1     -19.335 -34.864   0.939  1.00  0.00     0.004 A 
ATOM     12  C   UNL     1     -21.306 -35.451  -0.396  1.00  0.00     0.027 A 
ATOM     13  C   UNL     1     -18.101 -35.498   1.279  1.00  0.00    -0.014 A 
ATOM     14  C   UNL     1     -19.920 -33.638   1.277  1.00  0.00     0.021 A 
ATOM     15  C   UNL     1     -21.844 -34.231  -0.051  1.00  0.00     0.012 A 
BRANCH   8  16
ATOM     16  C   UNL     1     -19.685 -38.003  -0.911  1.00  0.00     0.119 C 
ATOM     17  C   UNL     1     -19.250 -37.751  -2.326  1.00  0.00     0.027 C 
ENDBRANCH   8  16
BRANCH  10  18
ATOM     18  C   UNL     1     -17.010 -37.724   0.640  1.00  0.00     0.025 A 
ATOM     19  C   UNL     1     -16.773 -38.619   1.709  1.00  0.00     0.078 A 
ATOM     20  C   UNL     1     -16.165 -37.762  -0.467  1.00  0.00     0.039 A 
ATOM     21  N   UNL     1     -15.758 -39.492   1.665  1.00  0.00    -0.256 NA
ATOM     22  C   UNL     1     -15.111 -38.660  -0.488  1.00  0.00     0.056 A 
ATOM     23  C   UNL     1     -14.949 -39.515   0.591  1.00  0.00     0.137 A 
BRANCH  19  24
ATOM     24  C   UNL     1     -17.625 -38.653   2.966  1.00  0.00     0.164 C 
ATOM     25  C   UNL     1     -16.861 -39.349   4.072  1.00  0.00     0.045 C 
BRANCH  24  26
ATOM     26  O   UNL     1     -18.796 -39.417   2.679  1.00  0.00    -0.375 OA
ATOM     27  C   UNL     1     -20.007 -38.726   2.944  1.00  0.00     0.195 C 
ENDBRANCH  24  26
ENDBRANCH  19  24
BRANCH  22  28
ATOM     28  N   UNL     1     -14.269 -38.736  -1.584  1.00  0.00    -0.368 N 
ATOM     29  C   UNL     1     -14.562 -39.604  -2.735  1.00  0.00     0.132 C 
ATOM     30  C   UNL     1     -13.133 -37.819  -1.730  1.00  0.00     0.132 C 
ATOM     31  C   UNL     1     -13.315 -40.104  -3.431  1.00  0.00     0.105 C 
ATOM     32  C   UNL     1     -11.964 -38.436  -2.460  1.00  0.00     0.105 C 
ATOM     33  N   UNL     1     -12.404 -39.003  -3.730  1.00  0.00    -0.303 NA
ATOM     34  C   UNL     1     -11.254 -39.467  -4.507  1.00  0.00     0.105 C 
ENDBRANCH  22  28
ENDBRANCH  10  18
BRANCH  13  35
ATOM     35  C   UNL     1     -17.007 -34.910   2.125  1.00  0.00     0.048 C 
BRANCH  35  36
ATOM     36  C   UNL     1     -16.145 -33.844   1.434  1.00  0.00     0.003 CG0
ATOM     37  C   UNL     1     -16.367 -34.003  -0.071  1.00  0.00     0.015 C 
ATOM     38  C   UNL     1     -14.658 -34.058   1.733  1.00  0.00     0.015 C 
ATOM     39  G   UNL     1     -16.547 -32.439   1.871  1.00  0.00     0.000 G0
ENDBRANCH  35  36
ENDBRANCH  13  35
ENDBRANCH   3   7
ENDBRANCH   1   2
BRANCH   1  40
ATOM     40  C   UNL     1     -19.927 -28.212   1.653  1.00  0.00     0.179 C 
BRANCH  40  41
ATOM     41  C   UNL     1     -18.987 -27.547   0.662  1.00  0.00     0.259 C 
ATOM     42  O   UNL     1     -19.386 -27.073  -0.395  1.00  0.00    -0.271 OA
BRANCH  41  43
ATOM     43  N   UNL     1     -17.649 -27.546   0.956  1.00  0.00    -0.275 N 
ATOM     44  C   UNL     1     -16.684 -26.578   0.410  1.00  0.00     0.140 C 
ATOM     45  N   UNL     1     -17.127 -28.545   1.810  1.00  0.00    -0.218 NA
ATOM     46  C   UNL     1     -15.708 -27.361  -0.447  1.00  0.00     0.025 C 
ATOM     47  C   UNL     1     -16.136 -29.346   1.072  1.00  0.00     0.184 C 
ATOM     48  C   UNL     1     -15.074 -28.456   0.405  1.00  0.00     0.035 C 
ATOM     49  H   UNL     1     -16.675 -28.103   2.623  1.00  0.00     0.149 HD
BRANCH  47  50
ATOM     50  C   UNL     1     -15.482 -30.312   2.028  1.00  0.00     0.324 C 
ATOM     51  O   UNL     1     -15.057 -30.011   3.118  1.00  0.00    -0.250 OA
BRANCH  50  52
ATOM     52  O   UNL     1     -15.419 -31.547   1.516  1.00  0.00    -0.464 OA
BRANCH  52  53
ATOM     53  C   UNL     1     -16.540 -32.411   1.861  1.00  0.00     0.239 CG0
ATOM     54  G   UNL     1     -16.127 -33.817   1.438  1.00  0.00     0.000 G0
ENDBRANCH  52  53
ENDBRANCH  50  52
ENDBRANCH  47  50
ENDBRANCH  41  43
ENDBRANCH  40  41
BRANCH  40  55
ATOM     55  N   UNL     1     -20.046 -27.471   2.896  1.00  0.00    -0.344 N 
ATOM     56  C   UNL     1     -19.967 -28.081   4.090  1.00  0.00     0.224 C 
ATOM     57  O   UNL     1     -20.062 -29.298   4.219  1.00  0.00    -0.275 OA
ATOM     58  H   UNL     1     -20.194 -26.453   2.862  1.00  0.00     0.164 HD
BRANCH  56  59
ATOM     59  C   UNL     1     -19.665 -27.213   5.245  1.00  0.00     0.081 C 
ATOM     60  C   UNL     1     -19.166 -25.827   4.944  1.00  0.00     0.018 C 
ATOM     61  C   UNL     1     -20.543 -25.991   5.473  1.00  0.00    -0.001 C 
ATOM     62  C   UNL     1     -20.897 -25.534   6.872  1.00  0.00     0.008 C 
ENDBRANCH  56  59
ENDBRANCH  40  55
ENDBRANCH   1  40
TORSDOF 7
ENDMDL
MODEL 4
REMARK VINA RESULT:    -5.036      2.410      3.351
REMARK INTER + INTRA:         -14.760
REMARK INTER:                 -11.160
REMARK INTRA:                  -3.600
REMARK UNBOUND:                -4.720
REMARK SMILES CCn1c(-c2cc(N3CCN(C)CC3)cnc2[C@H](C)OC)c2c3cc(ccc31)-c1csc(n1)C[C@H](NC(=O)[C@H]1C[C@@H]1C)C(=O)N1CCC[C@H](N1)C(=O)OCC(C)(C)C2
REMARK SMILES IDX 34 1 32 2 29 3 30 4 33 5 31 6 25 7 3 8 28 9 4 10 23 11 27 12
REMARK SMILES IDX 22 13 24 14 26 15 2 16 1 17 5 18 17 19 6 20 16 21 7 22 15 23
REMARK SMILES IDX 18 24 19 25 20 26 21 27 8 28 14 29 9 30 13 31 10 32 11 33
REMARK SMILES IDX 12 34 58 35 55 36 56 37 57 38 35 40 43 41 44 42 45 43 46 44
REMARK SMILES IDX 50 45 47 46 49 47 48 48 51 50 52 51 53 52 54 53 36 55 37 56
REMARK SMILES IDX 38 57 39 59 40 60 41 61 42 62
REMARK H PARENT 50 49 36 58
REMARK Flexibility Score:  160.900
ROOT
ATOM      1  C   UNL     1     -18.595 -24.758   2.350  1.00  0.00     0.102 C 
ENDROOT
BRANCH   1   2
ATOM      2  C   UNL     1     -18.860 -25.967   3.192  1.00  0.00     0.096 A 
ATOM      3  C   UNL     1     -19.001 -28.100   3.757  1.00  0.00     0.081 A 
ATOM      4  C   UNL     1     -19.428 -27.564   4.924  1.00  0.00     0.095 A 
ATOM      5  N   UNL     1     -18.750 -27.182   2.741  1.00  0.00    -0.241 NA
ATOM      6  S   UNL     1     -19.303 -25.860   4.861  1.00  0.00    -0.127 S 
BRANCH   3   7
ATOM      7  C   UNL     1     -18.772 -29.523   3.440  1.00  0.00     0.002 A 
ATOM      8  N   UNL     1     -17.936 -33.451   2.510  1.00  0.00    -0.340 N 
ATOM      9  C   UNL     1     -18.355 -32.199   2.919  1.00  0.00     0.049 A 
ATOM     10  C   UNL     1     -16.937 -33.302   1.564  1.00  0.00     0.054 A 
ATOM     11  C   UNL     1     -17.589 -31.237   2.236  1.00  0.00     0.004 A 
ATOM     12  C   UNL     1     -19.309 -31.853   3.870  1.00  0.00     0.027 A 
ATOM     13  C   UNL     1     -16.696 -31.943   1.372  1.00  0.00    -0.014 A 
ATOM     14  C   UNL     1     -17.805 -29.881   2.507  1.00  0.00     0.021 A 
ATOM     15  C   UNL     1     -19.502 -30.509   4.103  1.00  0.00     0.012 A 
BRANCH   8  16
ATOM     16  C   UNL     1     -18.551 -34.689   2.982  1.00  0.00     0.119 C 
ATOM     17  C   UNL     1     -17.661 -35.351   3.994  1.00  0.00     0.027 C 
ENDBRANCH   8  16
BRANCH  10  18
ATOM     18  C   UNL     1     -16.316 -34.418   0.844  1.00  0.00     0.025 A 
ATOM     19  C   UNL     1     -16.932 -35.065  -0.252  1.00  0.00     0.078 A 
ATOM     20  C   UNL     1     -15.069 -34.865   1.273  1.00  0.00     0.039 A 
ATOM     21  N   UNL     1     -16.334 -36.090  -0.872  1.00  0.00    -0.256 NA
ATOM     22  C   UNL     1     -14.472 -35.938   0.629  1.00  0.00     0.056 A 
ATOM     23  C   UNL     1     -15.131 -36.514  -0.445  1.00  0.00     0.137 A 
BRANCH  19  24
ATOM     24  C   UNL     1     -18.295 -34.665  -0.793  1.00  0.00     0.164 C 
ATOM     25  C   UNL     1     -19.233 -35.850  -0.717  1.00  0.00     0.045 C 
BRANCH  24  26
ATOM     26  O   UNL     1     -18.131 -34.308  -2.165  1.00  0.00    -0.375 OA
ATOM     27  C   UNL     1     -19.097 -34.893  -3.025  1.00  0.00     0.195 C 
ENDBRANCH  24  26
ENDBRANCH  19  24
BRANCH  22  28
ATOM     28  N   UNL     1     -13.223 -36.390   1.020  1.00  0.00    -0.368 N 
ATOM     29  C   UNL     1     -12.671 -37.666   0.540  1.00  0.00     0.132 C 
ATOM     30  C   UNL     1     -12.315 -35.533   1.790  1.00  0.00     0.132 C 
ATOM     31  C   UNL     1     -11.735 -38.317   1.536  1.00  0.00     0.105 C 
ATOM     32  C   UNL     1     -11.423 -36.310   2.729  1.00  0.00     0.105 C 
ATOM     33  N   UNL     1     -10.729 -37.369   2.006  1.00  0.00    -0.303 NA
ATOM     34  C   UNL     1      -9.753 -38.027   2.877  1.00  0.00     0.105 C 
ENDBRANCH  22  28
ENDBRANCH  10  18
BRANCH  13  35
ATOM     35  C   UNL     1     -15.715 -31.323   0.416  1.00  0.00     0.048 C 
BRANCH  35  36
ATOM     36  C   UNL     1     -16.305 -30.870  -0.927  1.00  0.00     0.003 CG0
ATOM     37  C   UNL     1     -17.827 -30.946  -0.790  1.00  0.00     0.015 C 
ATOM     38  C   UNL     1     -15.870 -31.801  -2.063  1.00  0.00     0.015 C 
ATOM     39  G   UNL     1     -15.886 -29.441  -1.261  1.00  0.00     0.000 G0
ENDBRANCH  35  36
ENDBRANCH  13  35
ENDBRANCH   3   7
ENDBRANCH   1   2
BRANCH   1  40
ATOM     40  C   UNL     1     -19.632 -24.630   1.224  1.00  0.00     0.179 C 
BRANCH  40  41
ATOM     41  C   UNL     1     -19.041 -25.175  -0.065  1.00  0.00     0.259 C 
ATOM     42  O   UNL     1     -19.723 -25.763  -0.895  1.00  0.00    -0.271 OA
BRANCH  41  43
ATOM     43  N   UNL     1     -17.690 -25.046  -0.249  1.00  0.00    -0.275 N 
ATOM     44  C   UNL     1     -17.066 -23.999  -1.075  1.00  0.00     0.140 C 
ATOM     45  N   UNL     1     -16.816 -25.981   0.352  1.00  0.00    -0.218 NA
ATOM     46  C   UNL     1     -16.378 -24.698  -2.231  1.00  0.00     0.025 C 
ATOM     47  C   UNL     1     -16.071 -26.695  -0.698  1.00  0.00     0.184 C 
ATOM     48  C   UNL     1     -15.391 -25.719  -1.672  1.00  0.00     0.035 C 
ATOM     49  H   UNL     1     -16.154 -25.488   0.968  1.00  0.00     0.149 HD
BRANCH  47  50
ATOM     50  C   UNL     1     -15.042 -27.584  -0.046  1.00  0.00     0.324 C 
ATOM     51  O   UNL     1     -13.968 -27.204   0.356  1.00  0.00    -0.250 OA
BRANCH  50  52
ATOM     52  O   UNL     1     -15.460 -28.854   0.023  1.00  0.00    -0.464 OA
BRANCH  52  53
ATOM     53  C   UNL     1     -15.897 -29.424  -1.244  1.00  0.00     0.239 CG0
ATOM     54  G   UNL     1     -16.319 -30.856  -0.930  1.00  0.00     0.000 G0
ENDBRANCH  52  53
ENDBRANCH  50  52
ENDBRANCH  47  50
ENDBRANCH  41  43
ENDBRANCH  40  41
BRANCH  40  55
ATOM     55  N   UNL     1     -20.895 -25.258   1.572  1.00  0.00    -0.344 N 
ATOM     56  C   UNL     1     -22.040 -24.558   1.621  1.00  0.00     0.224 C 
ATOM     57  O   UNL     1     -22.064 -23.331   1.648  1.00  0.00    -0.275 OA
ATOM     58  H   UNL     1     -20.913 -26.265   1.784  1.00  0.00     0.164 HD
BRANCH  56  59
ATOM     59  C   UNL     1     -23.287 -25.344   1.549  1.00  0.00     0.081 C 
ATOM     60  C   UNL     1     -23.233 -26.756   2.060  1.00  0.00     0.018 C 
ATOM     61  C   UNL     1     -23.963 -25.738   2.855  1.00  0.00    -0.001 C 
ATOM     62  C   UNL     1     -25.472 -25.778   2.971  1.00  0.00     0.008 C 
ENDBRANCH  56  59
ENDBRANCH  40  55
ENDBRANCH   1  40
TORSDOF 7
ENDMDL
MODEL 5
REMARK VINA RESULT:    -5.030      1.769      2.133
REMARK INTER + INTRA:         -14.748
REMARK INTER:                 -10.610
REMARK INTRA:                  -4.138
REMARK UNBOUND:                -4.720
REMARK SMILES CCn1c(-c2cc(N3CCN(C)CC3)cnc2[C@H](C)OC)c2c3cc(ccc31)-c1csc(n1)C[C@H](NC(=O)[C@H]1C[C@@H]1C)C(=O)N1CCC[C@H](N1)C(=O)OCC(C)(C)C2
REMARK SMILES IDX 34 1 32 2 29 3 30 4 33 5 31 6 25 7 3 8 28 9 4 10 23 11 27 12
REMARK SMILES IDX 22 13 24 14 26 15 2 16 1 17 5 18 17 19 6 20 16 21 7 22 15 23
REMARK SMILES IDX 18 24 19 25 20 26 21 27 8 28 14 29 9 30 13 31 10 32 11 33
REMARK SMILES IDX 12 34 58 35 55 36 56 37 57 38 35 40 43 41 44 42 45 43 46 44
REMARK SMILES IDX 50 45 47 46 49 47 48 48 51 50 52 51 53 52 54 53 36 55 37 56
REMARK SMILES IDX 38 57 39 59 40 60 41 61 42 62
REMARK H PARENT 50 49 36 58
REMARK Flexibility Score:  160.900
ROOT
ATOM      1  C   UNL     1     -21.970 -28.736   4.645  1.00  0.00     0.102 C 
ENDROOT
BRANCH   1   2
ATOM      2  C   UNL     1     -22.446 -30.084   4.203  1.00  0.00     0.096 A 
ATOM      3  C   UNL     1     -22.354 -32.175   3.491  1.00  0.00     0.081 A 
ATOM      4  C   UNL     1     -23.700 -32.061   3.576  1.00  0.00     0.095 A 
ATOM      5  N   UNL     1     -21.642 -31.015   3.778  1.00  0.00    -0.241 NA
ATOM      6  S   UNL     1     -24.112 -30.546   4.252  1.00  0.00    -0.127 S 
BRANCH   3   7
ATOM      7  C   UNL     1     -21.565 -33.371   3.137  1.00  0.00     0.002 A 
ATOM      8  N   UNL     1     -19.195 -36.590   2.132  1.00  0.00    -0.340 N 
ATOM      9  C   UNL     1     -20.101 -35.633   2.543  1.00  0.00     0.049 A 
ATOM     10  C   UNL     1     -18.232 -35.986   1.342  1.00  0.00     0.054 A 
ATOM     11  C   UNL     1     -19.693 -34.391   2.022  1.00  0.00     0.004 A 
ATOM     12  C   UNL     1     -21.213 -35.764   3.369  1.00  0.00     0.027 A 
ATOM     13  C   UNL     1     -18.510 -34.623   1.255  1.00  0.00    -0.014 A 
ATOM     14  C   UNL     1     -20.439 -33.248   2.330  1.00  0.00     0.021 A 
ATOM     15  C   UNL     1     -21.929 -34.619   3.642  1.00  0.00     0.012 A 
BRANCH   8  16
ATOM     16  C   UNL     1     -19.336 -38.009   2.451  1.00  0.00     0.119 C 
ATOM     17  C   UNL     1     -19.117 -38.230   3.920  1.00  0.00     0.027 C 
ENDBRANCH   8  16
BRANCH  10  18
ATOM     18  C   UNL     1     -17.157 -36.712   0.659  1.00  0.00     0.025 A 
ATOM     19  C   UNL     1     -17.269 -37.181  -0.670  1.00  0.00     0.078 A 
ATOM     20  C   UNL     1     -15.980 -36.960   1.362  1.00  0.00     0.039 A 
ATOM     21  N   UNL     1     -16.266 -37.852  -1.251  1.00  0.00    -0.256 NA
ATOM     22  C   UNL     1     -14.959 -37.670   0.750  1.00  0.00     0.056 A 
ATOM     23  C   UNL     1     -15.137 -38.087  -0.560  1.00  0.00     0.137 A 
BRANCH  19  24
ATOM     24  C   UNL     1     -18.511 -36.976  -1.521  1.00  0.00     0.164 C 
ATOM     25  C   UNL     1     -18.724 -38.189  -2.400  1.00  0.00     0.045 C 
BRANCH  24  26
ATOM     26  O   UNL     1     -18.281 -35.846  -2.362  1.00  0.00    -0.375 OA
ATOM     27  C   UNL     1     -19.453 -35.363  -3.002  1.00  0.00     0.195 C 
ENDBRANCH  24  26
ENDBRANCH  19  24
BRANCH  22  28
ATOM     28  N   UNL     1     -13.770 -37.912   1.416  1.00  0.00    -0.368 N 
ATOM     29  C   UNL     1     -12.529 -38.248   0.700  1.00  0.00     0.132 C 
ATOM     30  C   UNL     1     -13.647 -37.670   2.858  1.00  0.00     0.132 C 
ATOM     31  C   UNL     1     -11.604 -39.134   1.505  1.00  0.00     0.105 C 
ATOM     32  C   UNL     1     -12.678 -38.610   3.535  1.00  0.00     0.105 C 
ATOM     33  N   UNL     1     -11.393 -38.593   2.845  1.00  0.00    -0.303 NA
ATOM     34  C   UNL     1     -10.407 -39.384   3.583  1.00  0.00     0.105 C 
ENDBRANCH  22  28
ENDBRANCH  10  18
BRANCH  13  35
ATOM     35  C   UNL     1     -17.743 -33.591   0.477  1.00  0.00     0.048 C 
BRANCH  35  36
ATOM     36  C   UNL     1     -16.510 -33.016   1.190  1.00  0.00     0.003 CG0
ATOM     37  C   UNL     1     -15.282 -33.608   0.496  1.00  0.00     0.015 C 
ATOM     38  C   UNL     1     -16.483 -33.427   2.665  1.00  0.00     0.015 C 
ATOM     39  G   UNL     1     -16.476 -31.493   1.093  1.00  0.00     0.000 G0
ENDBRANCH  35  36
ENDBRANCH  13  35
ENDBRANCH   3   7
ENDBRANCH   1   2
BRANCH   1  40
ATOM     40  C   UNL     1     -22.020 -27.725   3.489  1.00  0.00     0.179 C 
BRANCH  40  41
ATOM     41  C   UNL     1     -20.658 -27.071   3.336  1.00  0.00     0.259 C 
ATOM     42  O   UNL     1     -20.531 -25.864   3.166  1.00  0.00    -0.271 OA
BRANCH  41  43
ATOM     43  N   UNL     1     -19.557 -27.887   3.331  1.00  0.00    -0.275 N 
ATOM     44  C   UNL     1     -18.394 -27.710   4.215  1.00  0.00     0.140 C 
ATOM     45  N   UNL     1     -19.492 -28.956   2.407  1.00  0.00    -0.218 NA
ATOM     46  C   UNL     1     -17.207 -27.394   3.328  1.00  0.00     0.025 C 
ATOM     47  C   UNL     1     -18.340 -28.754   1.513  1.00  0.00     0.184 C 
ATOM     48  C   UNL     1     -17.044 -28.514   2.305  1.00  0.00     0.035 C 
ATOM     49  H   UNL     1     -19.381 -29.845   2.915  1.00  0.00     0.149 HD
BRANCH  47  50
ATOM     50  C   UNL     1     -18.193 -29.967   0.628  1.00  0.00     0.324 C 
ATOM     51  O   UNL     1     -18.393 -29.971  -0.563  1.00  0.00    -0.250 OA
BRANCH  50  52
ATOM     52  O   UNL     1     -17.824 -31.047   1.327  1.00  0.00    -0.464 OA
BRANCH  52  53
ATOM     53  C   UNL     1     -16.461 -31.499   1.081  1.00  0.00     0.239 CG0
ATOM     54  G   UNL     1     -16.506 -33.021   1.174  1.00  0.00     0.000 G0
ENDBRANCH  52  53
ENDBRANCH  50  52
ENDBRANCH  47  50
ENDBRANCH  41  43
ENDBRANCH  40  41
BRANCH  40  55
ATOM     55  N   UNL     1     -22.493 -28.330   2.255  1.00  0.00    -0.344 N 
ATOM     56  C   UNL     1     -23.424 -27.736   1.491  1.00  0.00     0.224 C 
ATOM     57  O   UNL     1     -24.121 -26.811   1.897  1.00  0.00    -0.275 OA
ATOM     58  H   UNL     1     -22.103 -29.236   1.959  1.00  0.00     0.164 HD
BRANCH  56  59
ATOM     59  C   UNL     1     -23.506 -28.195   0.091  1.00  0.00     0.081 C 
ATOM     60  C   UNL     1     -22.753 -29.448  -0.261  1.00  0.00     0.018 C 
ATOM     61  C   UNL     1     -24.235 -29.501  -0.194  1.00  0.00    -0.001 C 
ATOM     62  C   UNL     1     -25.063 -29.674  -1.449  1.00  0.00     0.008 C 
ENDBRANCH  56  59
ENDBRANCH  40  55
ENDBRANCH   1  40
TORSDOF 7
ENDMDL
MODEL 6
REMARK VINA RESULT:    -5.006      1.848      2.701
REMARK INTER + INTRA:         -14.701
REMARK INTER:                 -10.982
REMARK INTRA:                  -3.719
REMARK UNBOUND:                -4.720
REMARK SMILES CCn1c(-c2cc(N3CCN(C)CC3)cnc2[C@H](C)OC)c2c3cc(ccc31)-c1csc(n1)C[C@H](NC(=O)[C@H]1C[C@@H]1C)C(=O)N1CCC[C@H](N1)C(=O)OCC(C)(C)C2
REMARK SMILES IDX 34 1 32 2 29 3 30 4 33 5 31 6 25 7 3 8 28 9 4 10 23 11 27 12
REMARK SMILES IDX 22 13 24 14 26 15 2 16 1 17 5 18 17 19 6 20 16 21 7 22 15 23
REMARK SMILES IDX 18 24 19 25 20 26 21 27 8 28 14 29 9 30 13 31 10 32 11 33
REMARK SMILES IDX 12 34 58 35 55 36 56 37 57 38 35 40 43 41 44 42 45 43 46 44
REMARK SMILES IDX 50 45 47 46 49 47 48 48 51 50 52 51 53 52 54 53 36 55 37 56
REMARK SMILES IDX 38 57 39 59 40 60 41 61 42 62
REMARK H PARENT 50 49 36 58
REMARK Flexibility Score:  160.900
ROOT
ATOM      1  C   UNL     1     -22.551 -26.981   2.622  1.00  0.00     0.102 C 
ENDROOT
BRANCH   1   2
ATOM      2  C   UNL     1     -22.506 -28.292   3.344  1.00  0.00     0.096 A 
ATOM      3  C   UNL     1     -22.074 -30.427   3.721  1.00  0.00     0.081 A 
ATOM      4  C   UNL     1     -22.678 -30.142   4.899  1.00  0.00     0.095 A 
ATOM      5  N   UNL     1     -22.046 -29.383   2.803  1.00  0.00    -0.241 NA
ATOM      6  S   UNL     1     -23.026 -28.471   4.983  1.00  0.00    -0.127 S 
BRANCH   3   7
ATOM      7  C   UNL     1     -21.448 -31.697   3.305  1.00  0.00     0.002 A 
ATOM      8  N   UNL     1     -19.517 -35.154   2.163  1.00  0.00    -0.340 N 
ATOM      9  C   UNL     1     -20.304 -34.103   2.589  1.00  0.00     0.049 A 
ATOM     10  C   UNL     1     -18.366 -34.647   1.583  1.00  0.00     0.054 A 
ATOM     11  C   UNL     1     -19.629 -32.904   2.293  1.00  0.00     0.004 A 
ATOM     12  C   UNL     1     -21.527 -34.124   3.250  1.00  0.00     0.027 A 
ATOM     13  C   UNL     1     -18.403 -33.256   1.649  1.00  0.00    -0.014 A 
ATOM     14  C   UNL     1     -20.215 -31.687   2.662  1.00  0.00     0.021 A 
ATOM     15  C   UNL     1     -22.078 -32.908   3.588  1.00  0.00     0.012 A 
BRANCH   8  16
ATOM     16  C   UNL     1     -19.931 -36.552   2.267  1.00  0.00     0.119 C 
ATOM     17  C   UNL     1     -19.392 -37.154   3.532  1.00  0.00     0.027 C 
ENDBRANCH   8  16
BRANCH  10  18
ATOM     18  C   UNL     1     -17.339 -35.473   0.941  1.00  0.00     0.025 A 
ATOM     19  C   UNL     1     -17.452 -35.948  -0.386  1.00  0.00     0.078 A 
ATOM     20  C   UNL     1     -16.209 -35.812   1.682  1.00  0.00     0.039 A 
ATOM     21  N   UNL     1     -16.494 -36.711  -0.929  1.00  0.00    -0.256 NA
ATOM     22  C   UNL     1     -15.236 -36.615   1.109  1.00  0.00     0.056 A 
ATOM     23  C   UNL     1     -15.410 -37.033  -0.201  1.00  0.00     0.137 A 
BRANCH  19  24
ATOM     24  C   UNL     1     -18.645 -35.647  -1.277  1.00  0.00     0.164 C 
ATOM     25  C   UNL     1     -19.216 -36.944  -1.807  1.00  0.00     0.045 C 
BRANCH  24  26
ATOM     26  O   UNL     1     -18.179 -34.875  -2.384  1.00  0.00    -0.375 OA
ATOM     27  C   UNL     1     -19.063 -34.880  -3.495  1.00  0.00     0.195 C 
ENDBRANCH  24  26
ENDBRANCH  19  24
BRANCH  22  28
ATOM     28  N   UNL     1     -14.093 -36.951   1.814  1.00  0.00    -0.368 N 
ATOM     29  C   UNL     1     -13.407 -35.991   2.692  1.00  0.00     0.132 C 
ATOM     30  C   UNL     1     -13.611 -38.336   1.859  1.00  0.00     0.132 C 
ATOM     31  C   UNL     1     -11.917 -36.234   2.785  1.00  0.00     0.105 C 
ATOM     32  C   UNL     1     -12.108 -38.436   1.972  1.00  0.00     0.105 C 
ATOM     33  N   UNL     1     -11.632 -37.633   3.092  1.00  0.00    -0.303 NA
ATOM     34  C   UNL     1     -10.198 -37.844   3.299  1.00  0.00     0.105 C 
ENDBRANCH  22  28
ENDBRANCH  10  18
BRANCH  13  35
ATOM     35  C   UNL     1     -17.377 -32.296   1.116  1.00  0.00     0.048 C 
BRANCH  35  36
ATOM     36  C   UNL     1     -16.311 -31.848   2.127  1.00  0.00     0.003 CG0
ATOM     37  C   UNL     1     -14.987 -32.467   1.678  1.00  0.00     0.015 C 
ATOM     38  C   UNL     1     -16.636 -32.358   3.534  1.00  0.00     0.015 C 
ATOM     39  G   UNL     1     -16.187 -30.328   2.161  1.00  0.00     0.000 G0
ENDBRANCH  35  36
ENDBRANCH  13  35
ENDBRANCH   3   7
ENDBRANCH   1   2
BRANCH   1  40
ATOM     40  C   UNL     1     -21.555 -25.981   3.229  1.00  0.00     0.179 C 
BRANCH  40  41
ATOM     41  C   UNL     1     -20.370 -25.824   2.292  1.00  0.00     0.259 C 
ATOM     42  O   UNL     1     -20.448 -25.197   1.243  1.00  0.00    -0.271 OA
BRANCH  41  43
ATOM     43  N   UNL     1     -19.206 -26.468   2.625  1.00  0.00    -0.275 N 
ATOM     44  C   UNL     1     -18.253 -25.980   3.634  1.00  0.00     0.140 C 
ATOM     45  N   UNL     1     -18.857 -27.661   1.950  1.00  0.00    -0.218 NA
ATOM     46  C   UNL     1     -16.962 -25.660   2.906  1.00  0.00     0.025 C 
ATOM     47  C   UNL     1     -17.588 -27.459   1.233  1.00  0.00     0.184 C 
ATOM     48  C   UNL     1     -16.495 -26.907   2.162  1.00  0.00     0.035 C 
ATOM     49  H   UNL     1     -18.749 -28.424   2.633  1.00  0.00     0.149 HD
BRANCH  47  50
ATOM     50  C   UNL     1     -17.152 -28.774   0.638  1.00  0.00     0.324 C 
ATOM     51  O   UNL     1     -16.673 -28.899  -0.465  1.00  0.00    -0.250 OA
BRANCH  50  52
ATOM     52  O   UNL     1     -17.371 -29.793   1.477  1.00  0.00    -0.464 OA
BRANCH  52  53
ATOM     53  C   UNL     1     -16.178 -30.313   2.133  1.00  0.00     0.239 CG0
ATOM     54  G   UNL     1     -16.330 -31.831   2.127  1.00  0.00     0.000 G0
ENDBRANCH  52  53
ENDBRANCH  50  52
ENDBRANCH  47  50
ENDBRANCH  41  43
ENDBRANCH  40  41
BRANCH  40  55
ATOM     55  N   UNL     1     -22.185 -24.712   3.553  1.00  0.00    -0.344 N 
ATOM     56  C   UNL     1     -22.233 -24.251   4.813  1.00  0.00     0.224 C 
ATOM     57  O   UNL     1     -22.005 -24.963   5.787  1.00  0.00    -0.275 OA
ATOM     58  H   UNL     1     -22.604 -24.153   2.797  1.00  0.00     0.164 HD
BRANCH  56  59
ATOM     59  C   UNL     1     -22.486 -22.806   4.968  1.00  0.00     0.081 C 
ATOM     60  C   UNL     1     -23.301 -22.138   3.896  1.00  0.00     0.018 C 
ATOM     61  C   UNL     1     -23.916 -22.352   5.229  1.00  0.00    -0.001 C 
ATOM     62  C   UNL     1     -24.208 -21.184   6.146  1.00  0.00     0.008 C 
ENDBRANCH  56  59
ENDBRANCH  40  55
ENDBRANCH   1  40
TORSDOF 7
ENDMDL
MODEL 7
REMARK VINA RESULT:    -4.933      3.129     10.639
REMARK INTER + INTRA:         -14.556
REMARK INTER:                 -10.554
REMARK INTRA:                  -4.002
REMARK UNBOUND:                -4.720
REMARK SMILES CCn1c(-c2cc(N3CCN(C)CC3)cnc2[C@H](C)OC)c2c3cc(ccc31)-c1csc(n1)C[C@H](NC(=O)[C@H]1C[C@@H]1C)C(=O)N1CCC[C@H](N1)C(=O)OCC(C)(C)C2
REMARK SMILES IDX 34 1 32 2 29 3 30 4 33 5 31 6 25 7 3 8 28 9 4 10 23 11 27 12
REMARK SMILES IDX 22 13 24 14 26 15 2 16 1 17 5 18 17 19 6 20 16 21 7 22 15 23
REMARK SMILES IDX 18 24 19 25 20 26 21 27 8 28 14 29 9 30 13 31 10 32 11 33
REMARK SMILES IDX 12 34 58 35 55 36 56 37 57 38 35 40 43 41 44 42 45 43 46 44
REMARK SMILES IDX 50 45 47 46 49 47 48 48 51 50 52 51 53 52 54 53 36 55 37 56
REMARK SMILES IDX 38 57 39 59 40 60 41 61 42 62
REMARK H PARENT 50 49 36 58
REMARK Flexibility Score:  160.900
ROOT
ATOM      1  C   UNL     1     -15.691 -37.315   0.008  1.00  0.00     0.102 C 
ENDROOT
BRANCH   1   2
ATOM      2  C   UNL     1     -15.177 -36.178   0.835  1.00  0.00     0.096 A 
ATOM      3  C   UNL     1     -14.995 -34.126   1.638  1.00  0.00     0.081 A 
ATOM      4  C   UNL     1     -14.015 -34.706   2.371  1.00  0.00     0.095 A 
ATOM      5  N   UNL     1     -15.606 -34.956   0.704  1.00  0.00    -0.241 NA
ATOM      6  S   UNL     1     -13.989 -36.390   2.073  1.00  0.00    -0.127 S 
BRANCH   3   7
ATOM      7  C   UNL     1     -15.484 -32.736   1.716  1.00  0.00     0.002 A 
ATOM      8  N   UNL     1     -17.035 -28.926   1.985  1.00  0.00    -0.340 N 
ATOM      9  C   UNL     1     -16.353 -30.125   1.916  1.00  0.00     0.049 A 
ATOM     10  C   UNL     1     -18.367 -29.150   1.684  1.00  0.00     0.054 A 
ATOM     11  C   UNL     1     -17.275 -31.135   1.586  1.00  0.00     0.004 A 
ATOM     12  C   UNL     1     -15.011 -30.396   2.165  1.00  0.00     0.027 A 
ATOM     13  C   UNL     1     -18.551 -30.509   1.434  1.00  0.00    -0.014 A 
ATOM     14  C   UNL     1     -16.827 -32.457   1.489  1.00  0.00     0.021 A 
ATOM     15  C   UNL     1     -14.604 -31.707   2.050  1.00  0.00     0.012 A 
BRANCH   8  16
ATOM     16  C   UNL     1     -16.376 -27.651   2.259  1.00  0.00     0.119 C 
ATOM     17  C   UNL     1     -15.955 -27.004   0.970  1.00  0.00     0.027 C 
ENDBRANCH   8  16
BRANCH  10  18
ATOM     18  C   UNL     1     -19.374 -28.090   1.577  1.00  0.00     0.025 A 
ATOM     19  C   UNL     1     -20.052 -27.557   2.698  1.00  0.00     0.078 A 
ATOM     20  C   UNL     1     -19.682 -27.600   0.310  1.00  0.00     0.039 A 
ATOM     21  N   UNL     1     -20.975 -26.597   2.552  1.00  0.00    -0.256 NA
ATOM     22  C   UNL     1     -20.651 -26.619   0.177  1.00  0.00     0.056 A 
ATOM     23  C   UNL     1     -21.264 -26.136   1.323  1.00  0.00     0.137 A 
BRANCH  19  24
ATOM     24  C   UNL     1     -19.801 -28.027   4.121  1.00  0.00     0.164 C 
ATOM     25  C   UNL     1     -21.088 -27.940   4.912  1.00  0.00     0.045 C 
BRANCH  24  26
ATOM     26  O   UNL     1     -18.850 -27.141   4.711  1.00  0.00    -0.375 OA
ATOM     27  C   UNL     1     -19.352 -26.430   5.832  1.00  0.00     0.195 C 
ENDBRANCH  24  26
ENDBRANCH  19  24
BRANCH  22  28
ATOM     28  N   UNL     1     -20.962 -26.097  -1.067  1.00  0.00    -0.368 N 
ATOM     29  C   UNL     1     -22.010 -26.682  -1.918  1.00  0.00     0.132 C 
ATOM     30  C   UNL     1     -20.386 -24.827  -1.521  1.00  0.00     0.132 C 
ATOM     31  C   UNL     1     -21.742 -26.498  -3.396  1.00  0.00     0.105 C 
ATOM     32  C   UNL     1     -20.190 -24.767  -3.017  1.00  0.00     0.105 C 
ATOM     33  N   UNL     1     -21.432 -25.105  -3.703  1.00  0.00    -0.303 NA
ATOM     34  C   UNL     1     -21.289 -24.903  -5.146  1.00  0.00     0.105 C 
ENDBRANCH  22  28
ENDBRANCH  10  18
BRANCH  13  35
ATOM     35  C   UNL     1     -19.831 -31.193   1.042  1.00  0.00     0.048 C 
BRANCH  35  36
ATOM     36  C   UNL     1     -20.572 -31.902   2.185  1.00  0.00     0.003 CG0
ATOM     37  C   UNL     1     -21.951 -31.249   2.290  1.00  0.00     0.015 C 
ATOM     38  C   UNL     1     -19.839 -31.716   3.517  1.00  0.00     0.015 C 
ATOM     39  G   UNL     1     -20.725 -33.393   1.901  1.00  0.00     0.000 G0
ENDBRANCH  35  36
ENDBRANCH  13  35
ENDBRANCH   3   7
ENDBRANCH   1   2
BRANCH   1  40
ATOM     40  C   UNL     1     -17.226 -37.380   0.052  1.00  0.00     0.179 C 
BRANCH  40  41
ATOM     41  C   UNL     1     -17.751 -37.723  -1.332  1.00  0.00     0.259 C 
ATOM     42  O   UNL     1     -17.074 -38.327  -2.154  1.00  0.00    -0.271 OA
BRANCH  41  43
ATOM     43  N   UNL     1     -19.003 -37.275  -1.666  1.00  0.00    -0.275 N 
ATOM     44  C   UNL     1     -19.566 -37.336  -3.024  1.00  0.00     0.140 C 
ATOM     45  N   UNL     1     -19.815 -36.683  -0.671  1.00  0.00    -0.218 NA
ATOM     46  C   UNL     1     -19.774 -35.907  -3.482  1.00  0.00     0.025 C 
ATOM     47  C   UNL     1     -20.102 -35.288  -1.045  1.00  0.00     0.184 C 
ATOM     48  C   UNL     1     -20.665 -35.191  -2.472  1.00  0.00     0.035 C 
ATOM     49  H   UNL     1     -20.698 -37.206  -0.590  1.00  0.00     0.149 HD
BRANCH  47  50
ATOM     50  C   UNL     1     -21.083 -34.711  -0.056  1.00  0.00     0.324 C 
ATOM     51  O   UNL     1     -22.127 -35.234   0.254  1.00  0.00    -0.250 OA
BRANCH  50  52
ATOM     52  O   UNL     1     -20.661 -33.539   0.432  1.00  0.00    -0.464 OA
BRANCH  52  53
ATOM     53  C   UNL     1     -20.725 -33.420   1.882  1.00  0.00     0.239 CG0
ATOM     54  G   UNL     1     -20.569 -31.933   2.185  1.00  0.00     0.000 G0
ENDBRANCH  52  53
ENDBRANCH  50  52
ENDBRANCH  47  50
ENDBRANCH  41  43
ENDBRANCH  40  41
BRANCH  40  55
ATOM     55  N   UNL     1     -17.704 -38.294   1.075  1.00  0.00    -0.344 N 
ATOM     56  C   UNL     1     -18.574 -37.901   2.019  1.00  0.00     0.224 C 
ATOM     57  O   UNL     1     -18.810 -36.719   2.251  1.00  0.00    -0.275 OA
ATOM     58  H   UNL     1     -17.368 -39.268   1.075  1.00  0.00     0.164 HD
BRANCH  56  59
ATOM     59  C   UNL     1     -19.311 -38.976   2.713  1.00  0.00     0.081 C 
ATOM     60  C   UNL     1     -18.693 -39.525   3.969  1.00  0.00     0.018 C 
ATOM     61  C   UNL     1     -19.902 -38.672   4.082  1.00  0.00    -0.001 C 
ATOM     62  C   UNL     1     -21.231 -39.259   4.507  1.00  0.00     0.008 C 
ENDBRANCH  56  59
ENDBRANCH  40  55
ENDBRANCH   1  40
TORSDOF 7
ENDMDL
MODEL 8
REMARK VINA RESULT:    -4.931      3.841      7.418
REMARK INTER + INTRA:         -14.551
REMARK INTER:                 -10.762
REMARK INTRA:                  -3.788
REMARK UNBOUND:                -4.720
REMARK SMILES CCn1c(-c2cc(N3CCN(C)CC3)cnc2[C@H](C)OC)c2c3cc(ccc31)-c1csc(n1)C[C@H](NC(=O)[C@H]1C[C@@H]1C)C(=O)N1CCC[C@H](N1)C(=O)OCC(C)(C)C2
REMARK SMILES IDX 34 1 32 2 29 3 30 4 33 5 31 6 25 7 3 8 28 9 4 10 23 11 27 12
REMARK SMILES IDX 22 13 24 14 26 15 2 16 1 17 5 18 17 19 6 20 16 21 7 22 15 23
REMARK SMILES IDX 18 24 19 25 20 26 21 27 8 28 14 29 9 30 13 31 10 32 11 33
REMARK SMILES IDX 12 34 58 35 55 36 56 37 57 38 35 40 43 41 44 42 45 43 46 44
REMARK SMILES IDX 50 45 47 46 49 47 48 48 51 50 52 51 53 52 54 53 36 55 37 56
REMARK SMILES IDX 38 57 39 59 40 60 41 61 42 62
REMARK H PARENT 50 49 36 58
REMARK Flexibility Score:  160.900
ROOT
ATOM      1  C   UNL     1     -15.848 -27.375   1.501  1.00  0.00     0.102 C 
ENDROOT
BRANCH   1   2
ATOM      2  C   UNL     1     -15.694 -28.857   1.645  1.00  0.00     0.096 A 
ATOM      3  C   UNL     1     -16.100 -31.012   1.364  1.00  0.00     0.081 A 
ATOM      4  C   UNL     1     -15.034 -31.124   2.190  1.00  0.00     0.095 A 
ATOM      5  N   UNL     1     -16.522 -29.710   1.116  1.00  0.00    -0.241 NA
ATOM      6  S   UNL     1     -14.374 -29.578   2.499  1.00  0.00    -0.127 S 
BRANCH   3   7
ATOM      7  C   UNL     1     -16.855 -32.094   0.703  1.00  0.00     0.002 A 
ATOM      8  N   UNL     1     -19.135 -35.046  -1.051  1.00  0.00    -0.340 N 
ATOM      9  C   UNL     1     -18.252 -34.087  -0.596  1.00  0.00     0.049 A 
ATOM     10  C   UNL     1     -20.146 -35.203  -0.118  1.00  0.00     0.054 A 
ATOM     11  C   UNL     1     -18.724 -33.609   0.640  1.00  0.00     0.004 A 
ATOM     12  C   UNL     1     -17.109 -33.577  -1.204  1.00  0.00     0.027 A 
ATOM     13  C   UNL     1     -19.922 -34.326   0.941  1.00  0.00    -0.014 A 
ATOM     14  C   UNL     1     -18.011 -32.596   1.292  1.00  0.00     0.021 A 
ATOM     15  C   UNL     1     -16.427 -32.589  -0.528  1.00  0.00     0.012 A 
BRANCH   8  16
ATOM     16  C   UNL     1     -18.930 -35.794  -2.289  1.00  0.00     0.119 C 
ATOM     17  C   UNL     1     -19.612 -35.096  -3.430  1.00  0.00     0.027 C 
ENDBRANCH   8  16
BRANCH  10  18
ATOM     18  C   UNL     1     -21.215 -36.200  -0.227  1.00  0.00     0.025 A 
ATOM     19  C   UNL     1     -21.222 -37.404   0.514  1.00  0.00     0.078 A 
ATOM     20  C   UNL     1     -22.260 -35.951  -1.113  1.00  0.00     0.039 A 
ATOM     21  N   UNL     1     -22.214 -38.294   0.374  1.00  0.00    -0.256 NA
ATOM     22  C   UNL     1     -23.269 -36.890  -1.257  1.00  0.00     0.056 A 
ATOM     23  C   UNL     1     -23.215 -38.042  -0.487  1.00  0.00     0.137 A 
BRANCH  19  24
ATOM     24  C   UNL     1     -20.127 -37.780   1.498  1.00  0.00     0.164 C 
ATOM     25  C   UNL     1     -18.994 -38.455   0.754  1.00  0.00     0.045 C 
BRANCH  24  26
ATOM     26  O   UNL     1     -20.676 -38.717   2.425  1.00  0.00    -0.375 OA
ATOM     27  C   UNL     1     -19.722 -39.629   2.946  1.00  0.00     0.195 C 
ENDBRANCH  24  26
ENDBRANCH  19  24
BRANCH  22  28
ATOM     28  N   UNL     1     -24.332 -36.659  -2.113  1.00  0.00    -0.368 N 
ATOM     29  C   UNL     1     -25.723 -36.620  -1.637  1.00  0.00     0.132 C 
ATOM     30  C   UNL     1     -24.108 -36.265  -3.508  1.00  0.00     0.132 C 
ATOM     31  C   UNL     1     -26.719 -37.070  -2.683  1.00  0.00     0.105 C 
ATOM     32  C   UNL     1     -25.185 -36.761  -4.444  1.00  0.00     0.105 C 
ATOM     33  N   UNL     1     -26.501 -36.374  -3.949  1.00  0.00    -0.303 NA
ATOM     34  C   UNL     1     -27.536 -36.720  -4.925  1.00  0.00     0.105 C 
ENDBRANCH  22  28
ENDBRANCH  10  18
BRANCH  13  35
ATOM     35  C   UNL     1     -20.753 -34.178   2.185  1.00  0.00     0.048 C 
BRANCH  35  36
ATOM     36  C   UNL     1     -22.030 -33.339   2.025  1.00  0.00     0.003 CG0
ATOM     37  C   UNL     1     -23.212 -34.292   2.210  1.00  0.00     0.015 C 
ATOM     38  C   UNL     1     -22.114 -32.724   0.624  1.00  0.00     0.015 C 
ATOM     39  G   UNL     1     -22.093 -32.226   3.066  1.00  0.00     0.000 G0
ENDBRANCH  35  36
ENDBRANCH  13  35
ENDBRANCH   3   7
ENDBRANCH   1   2
BRANCH   1  40
ATOM     40  C   UNL     1     -17.313 -26.951   1.686  1.00  0.00     0.179 C 
BRANCH  40  41
ATOM     41  C   UNL     1     -18.121 -27.406   0.483  1.00  0.00     0.259 C 
ATOM     42  O   UNL     1     -17.702 -27.293  -0.662  1.00  0.00    -0.271 OA
BRANCH  41  43
ATOM     43  N   UNL     1     -19.380 -27.898   0.711  1.00  0.00    -0.275 N 
ATOM     44  C   UNL     1     -20.619 -27.151   0.446  1.00  0.00     0.140 C 
ATOM     45  N   UNL     1     -19.528 -29.191   1.267  1.00  0.00    -0.218 NA
ATOM     46  C   UNL     1     -21.300 -26.931   1.782  1.00  0.00     0.025 C 
ATOM     47  C   UNL     1     -20.215 -29.085   2.565  1.00  0.00     0.184 C 
ATOM     48  C   UNL     1     -21.522 -28.285   2.450  1.00  0.00     0.035 C 
ATOM     49  H   UNL     1     -20.085 -29.778   0.630  1.00  0.00     0.149 HD
BRANCH  47  50
ATOM     50  C   UNL     1     -20.496 -30.474   3.081  1.00  0.00     0.324 C 
ATOM     51  O   UNL     1     -19.907 -30.994   3.998  1.00  0.00    -0.250 OA
BRANCH  50  52
ATOM     52  O   UNL     1     -21.475 -31.069   2.388  1.00  0.00    -0.464 OA
BRANCH  52  53
ATOM     53  C   UNL     1     -22.081 -32.217   3.048  1.00  0.00     0.239 CG0
ATOM     54  G   UNL     1     -22.031 -33.354   2.032  1.00  0.00     0.000 G0
ENDBRANCH  52  53
ENDBRANCH  50  52
ENDBRANCH  47  50
ENDBRANCH  41  43
ENDBRANCH  40  41
BRANCH  40  55
ATOM     55  N   UNL     1     -17.864 -27.426   2.944  1.00  0.00    -0.344 N 
ATOM     56  C   UNL     1     -18.066 -26.598   3.981  1.00  0.00     0.224 C 
ATOM     57  O   UNL     1     -17.564 -25.479   4.043  1.00  0.00    -0.275 OA
ATOM     58  H   UNL     1     -18.106 -28.422   3.041  1.00  0.00     0.164 HD
BRANCH  56  59
ATOM     59  C   UNL     1     -19.007 -27.069   5.016  1.00  0.00     0.081 C 
ATOM     60  C   UNL     1     -19.090 -26.260   6.281  1.00  0.00     0.018 C 
ATOM     61  C   UNL     1     -20.224 -26.208   5.325  1.00  0.00    -0.001 C 
ATOM     62  C   UNL     1     -21.558 -26.836   5.667  1.00  0.00     0.008 C 
ENDBRANCH  56  59
ENDBRANCH  40  55
ENDBRANCH   1  40
TORSDOF 7
ENDMDL
MODEL 9
REMARK VINA RESULT:    -4.917      5.005      9.593
REMARK INTER + INTRA:         -14.523
REMARK INTER:                  -9.937
REMARK INTRA:                  -4.586
REMARK UNBOUND:                -4.720
REMARK SMILES CCn1c(-c2cc(N3CCN(C)CC3)cnc2[C@H](C)OC)c2c3cc(ccc31)-c1csc(n1)C[C@H](NC(=O)[C@H]1C[C@@H]1C)C(=O)N1CCC[C@H](N1)C(=O)OCC(C)(C)C2
REMARK SMILES IDX 34 1 32 2 29 3 30 4 33 5 31 6 25 7 3 8 28 9 4 10 23 11 27 12
REMARK SMILES IDX 22 13 24 14 26 15 2 16 1 17 5 18 17 19 6 20 16 21 7 22 15 23
REMARK SMILES IDX 18 24 19 25 20 26 21 27 8 28 14 29 9 30 13 31 10 32 11 33
REMARK SMILES IDX 12 34 58 35 55 36 56 37 57 38 35 40 43 41 44 42 45 43 46 44
REMARK SMILES IDX 50 45 47 46 49 47 48 48 51 50 52 51 53 52 54 53 36 55 37 56
REMARK SMILES IDX 38 57 39 59 40 60 41 61 42 62
REMARK H PARENT 50 49 36 58
REMARK Flexibility Score:  160.900
ROOT
ATOM      1  C   UNL     1     -15.879 -34.264   3.947  1.00  0.00     0.102 C 
ENDROOT
BRANCH   1   2
ATOM      2  C   UNL     1     -16.931 -33.242   3.647  1.00  0.00     0.096 A 
ATOM      3  C   UNL     1     -18.793 -32.375   2.830  1.00  0.00     0.081 A 
ATOM      4  C   UNL     1     -18.320 -31.266   3.446  1.00  0.00     0.095 A 
ATOM      5  N   UNL     1     -17.956 -33.484   2.883  1.00  0.00    -0.241 NA
ATOM      6  S   UNL     1     -16.902 -31.650   4.321  1.00  0.00    -0.127 S 
BRANCH   3   7
ATOM      7  C   UNL     1     -20.076 -32.541   2.121  1.00  0.00     0.002 A 
ATOM      8  N   UNL     1     -23.642 -33.210   0.164  1.00  0.00    -0.340 N 
ATOM      9  C   UNL     1     -22.509 -32.819   0.850  1.00  0.00     0.049 A 
ATOM     10  C   UNL     1     -23.425 -34.464  -0.381  1.00  0.00     0.054 A 
ATOM     11  C   UNL     1     -21.562 -33.855   0.758  1.00  0.00     0.004 A 
ATOM     12  C   UNL     1     -22.273 -31.657   1.579  1.00  0.00     0.027 A 
ATOM     13  C   UNL     1     -22.146 -34.894  -0.030  1.00  0.00    -0.014 A 
ATOM     14  C   UNL     1     -20.331 -33.708   1.407  1.00  0.00     0.021 A 
ATOM     15  C   UNL     1     -21.047 -31.543   2.195  1.00  0.00     0.012 A 
BRANCH   8  16
ATOM     16  C   UNL     1     -24.816 -32.354   0.011  1.00  0.00     0.119 C 
ATOM     17  C   UNL     1     -24.729 -31.591  -1.281  1.00  0.00     0.027 C 
ENDBRANCH   8  16
BRANCH  10  18
ATOM     18  C   UNL     1     -24.382 -35.159  -1.248  1.00  0.00     0.025 A 
ATOM     19  C   UNL     1     -25.493 -35.876  -0.749  1.00  0.00     0.078 A 
ATOM     20  C   UNL     1     -24.172 -35.118  -2.624  1.00  0.00     0.039 A 
ATOM     21  N   UNL     1     -26.334 -36.508  -1.578  1.00  0.00    -0.256 NA
ATOM     22  C   UNL     1     -25.044 -35.790  -3.466  1.00  0.00     0.056 A 
ATOM     23  C   UNL     1     -26.118 -36.462  -2.905  1.00  0.00     0.137 A 
BRANCH  19  24
ATOM     24  C   UNL     1     -25.807 -35.995   0.733  1.00  0.00     0.164 C 
ATOM     25  C   UNL     1     -26.300 -37.394   1.032  1.00  0.00     0.045 C 
BRANCH  24  26
ATOM     26  O   UNL     1     -26.858 -35.075   1.030  1.00  0.00    -0.375 OA
ATOM     27  C   UNL     1     -26.792 -34.540   2.343  1.00  0.00     0.195 C 
ENDBRANCH  24  26
ENDBRANCH  19  24
BRANCH  22  28
ATOM     28  N   UNL     1     -24.873 -35.749  -4.839  1.00  0.00    -0.368 N 
ATOM     29  C   UNL     1     -25.105 -34.523  -5.618  1.00  0.00     0.132 C 
ATOM     30  C   UNL     1     -24.279 -36.879  -5.562  1.00  0.00     0.132 C 
ATOM     31  C   UNL     1     -25.567 -34.799  -7.032  1.00  0.00     0.105 C 
ATOM     32  C   UNL     1     -24.813 -37.029  -6.967  1.00  0.00     0.105 C 
ATOM     33  N   UNL     1     -24.695 -35.768  -7.689  1.00  0.00    -0.303 NA
ATOM     34  C   UNL     1     -25.071 -35.947  -9.093  1.00  0.00     0.105 C 
ENDBRANCH  22  28
ENDBRANCH  10  18
BRANCH  13  35
ATOM     35  C   UNL     1     -21.483 -36.182  -0.428  1.00  0.00     0.048 C 
BRANCH  35  36
ATOM     36  C   UNL     1     -21.691 -37.354   0.543  1.00  0.00     0.003 CG0
ATOM     37  C   UNL     1     -22.735 -38.274  -0.091  1.00  0.00     0.015 C 
ATOM     38  C   UNL     1     -22.226 -36.864   1.892  1.00  0.00     0.015 C 
ATOM     39  G   UNL     1     -20.392 -38.122   0.768  1.00  0.00     0.000 G0
ENDBRANCH  35  36
ENDBRANCH  13  35
ENDBRANCH   3   7
ENDBRANCH   1   2
BRANCH   1  40
ATOM     40  C   UNL     1     -14.868 -34.371   2.795  1.00  0.00     0.179 C 
BRANCH  40  41
ATOM     41  C   UNL     1     -14.202 -35.736   2.839  1.00  0.00     0.259 C 
ATOM     42  O   UNL     1     -13.111 -35.911   3.366  1.00  0.00    -0.271 OA
BRANCH  41  43
ATOM     43  N   UNL     1     -14.836 -36.773   2.206  1.00  0.00    -0.275 N 
ATOM     44  C   UNL     1     -14.276 -37.508   1.061  1.00  0.00     0.140 C 
ATOM     45  N   UNL     1     -16.126 -37.163   2.638  1.00  0.00    -0.218 NA
ATOM     46  C   UNL     1     -15.186 -37.246  -0.122  1.00  0.00     0.025 C 
ATOM     47  C   UNL     1     -17.084 -36.975   1.537  1.00  0.00     0.184 C 
ATOM     48  C   UNL     1     -16.606 -37.662   0.247  1.00  0.00     0.035 C 
ATOM     49  H   UNL     1     -16.111 -38.155   2.915  1.00  0.00     0.149 HD
BRANCH  47  50
ATOM     50  C   UNL     1     -18.423 -37.527   1.958  1.00  0.00     0.324 C 
ATOM     51  O   UNL     1     -18.587 -38.288   2.881  1.00  0.00    -0.250 OA
BRANCH  50  52
ATOM     52  O   UNL     1     -19.410 -37.078   1.174  1.00  0.00    -0.464 OA
BRANCH  52  53
ATOM     53  C   UNL     1     -20.376 -38.090   0.766  1.00  0.00     0.239 CG0
ATOM     54  G   UNL     1     -21.694 -37.349   0.564  1.00  0.00     0.000 G0
ENDBRANCH  52  53
ENDBRANCH  50  52
ENDBRANCH  47  50
ENDBRANCH  41  43
ENDBRANCH  40  41
BRANCH  40  55
ATOM     55  N   UNL     1     -15.475 -34.085   1.507  1.00  0.00    -0.344 N 
ATOM     56  C   UNL     1     -15.217 -32.947   0.843  1.00  0.00     0.224 C 
ATOM     57  O   UNL     1     -14.687 -31.976   1.376  1.00  0.00    -0.275 OA
ATOM     58  H   UNL     1     -16.120 -34.772   1.092  1.00  0.00     0.164 HD
BRANCH  56  59
ATOM     59  C   UNL     1     -15.521 -32.952  -0.601  1.00  0.00     0.081 C 
ATOM     60  C   UNL     1     -16.720 -33.744  -1.042  1.00  0.00     0.018 C 
ATOM     61  C   UNL     1     -16.796 -32.262  -1.068  1.00  0.00    -0.001 C 
ATOM     62  C   UNL     1     -16.840 -31.510  -2.380  1.00  0.00     0.008 C 
ENDBRANCH  56  59
ENDBRANCH  40  55
ENDBRANCH   1  40
TORSDOF 7
ENDMDL
MODEL 10
REMARK VINA RESULT:    -4.869      5.822      9.813
REMARK INTER + INTRA:         -14.427
REMARK INTER:                  -9.653
REMARK INTRA:                  -4.774
REMARK UNBOUND:                -4.720
REMARK SMILES CCn1c(-c2cc(N3CCN(C)CC3)cnc2[C@H](C)OC)c2c3cc(ccc31)-c1csc(n1)C[C@H](NC(=O)[C@H]1C[C@@H]1C)C(=O)N1CCC[C@H](N1)C(=O)OCC(C)(C)C2
REMARK SMILES IDX 34 1 32 2 29 3 30 4 33 5 31 6 25 7 3 8 28 9 4 10 23 11 27 12
REMARK SMILES IDX 22 13 24 14 26 15 2 16 1 17 5 18 17 19 6 20 16 21 7 22 15 23
REMARK SMILES IDX 18 24 19 25 20 26 21 27 8 28 14 29 9 30 13 31 10 32 11 33
REMARK SMILES IDX 12 34 58 35 55 36 56 37 57 38 35 40 43 41 44 42 45 43 46 44
REMARK SMILES IDX 50 45 47 46 49 47 48 48 51 50 52 51 53 52 54 53 36 55 37 56
REMARK SMILES IDX 38 57 39 59 40 60 41 61 42 62
REMARK H PARENT 50 49 36 58
REMARK Flexibility Score:  160.900
ROOT
ATOM      1  C   UNL     1     -18.729 -24.769  -5.767  1.00  0.00     0.102 C 
ENDROOT
BRANCH   1   2
ATOM      2  C   UNL     1     -18.076 -24.548  -4.438  1.00  0.00     0.096 A 
ATOM      3  C   UNL     1     -17.647 -24.791  -2.283  1.00  0.00     0.081 A 
ATOM      4  C   UNL     1     -16.727 -23.836  -2.555  1.00  0.00     0.095 A 
ATOM      5  N   UNL     1     -18.470 -25.141  -3.348  1.00  0.00    -0.241 NA
ATOM      6  S   UNL     1     -16.708 -23.510  -4.233  1.00  0.00    -0.127 S 
BRANCH   3   7
ATOM      7  C   UNL     1     -17.874 -25.496  -1.006  1.00  0.00     0.002 A 
ATOM      8  N   UNL     1     -18.687 -27.533   2.484  1.00  0.00    -0.340 N 
ATOM      9  C   UNL     1     -18.241 -26.856   1.365  1.00  0.00     0.049 A 
ATOM     10  C   UNL     1     -20.071 -27.520   2.493  1.00  0.00     0.054 A 
ATOM     11  C   UNL     1     -19.365 -26.424   0.638  1.00  0.00     0.004 A 
ATOM     12  C   UNL     1     -16.940 -26.640   0.923  1.00  0.00     0.027 A 
ATOM     13  C   UNL     1     -20.524 -26.842   1.362  1.00  0.00    -0.014 A 
ATOM     14  C   UNL     1     -19.171 -25.737  -0.565  1.00  0.00     0.021 A 
ATOM     15  C   UNL     1     -16.787 -25.950  -0.260  1.00  0.00     0.012 A 
BRANCH   8  16
ATOM     16  C   UNL     1     -17.785 -28.080   3.495  1.00  0.00     0.119 C 
ATOM     17  C   UNL     1     -17.526 -29.534   3.220  1.00  0.00     0.027 C 
ENDBRANCH   8  16
BRANCH  10  18
ATOM     18  C   UNL     1     -20.889 -28.070   3.578  1.00  0.00     0.025 A 
ATOM     19  C   UNL     1     -21.054 -27.419   4.823  1.00  0.00     0.078 A 
ATOM     20  C   UNL     1     -21.518 -29.295   3.372  1.00  0.00     0.039 A 
ATOM     21  N   UNL     1     -21.801 -27.965   5.792  1.00  0.00    -0.256 NA
ATOM     22  C   UNL     1     -22.274 -29.852   4.391  1.00  0.00     0.056 A 
ATOM     23  C   UNL     1     -22.401 -29.150   5.580  1.00  0.00     0.137 A 
BRANCH  19  24
ATOM     24  C   UNL     1     -20.404 -26.087   5.156  1.00  0.00     0.164 C 
ATOM     25  C   UNL     1     -19.466 -26.266   6.329  1.00  0.00     0.045 C 
BRANCH  24  26
ATOM     26  O   UNL     1     -21.439 -25.182   5.541  1.00  0.00    -0.375 OA
ATOM     27  C   UNL     1     -22.077 -24.546   4.445  1.00  0.00     0.195 C 
ENDBRANCH  24  26
ENDBRANCH  19  24
BRANCH  22  28
ATOM     28  N   UNL     1     -22.929 -31.058   4.208  1.00  0.00    -0.368 N 
ATOM     29  C   UNL     1     -22.199 -32.318   4.000  1.00  0.00     0.132 C 
ATOM     30  C   UNL     1     -24.380 -31.167   4.390  1.00  0.00     0.132 C 
ATOM     31  C   UNL     1     -22.961 -33.310   3.149  1.00  0.00     0.105 C 
ATOM     32  C   UNL     1     -25.013 -32.206   3.495  1.00  0.00     0.105 C 
ATOM     33  N   UNL     1     -24.325 -33.483   3.641  1.00  0.00    -0.303 NA
ATOM     34  C   UNL     1     -25.025 -34.528   2.892  1.00  0.00     0.105 C 
ENDBRANCH  22  28
ENDBRANCH  10  18
BRANCH  13  35
ATOM     35  C   UNL     1     -21.951 -26.565   0.984  1.00  0.00     0.048 C 
BRANCH  35  36
ATOM     36  C   UNL     1     -22.536 -27.489  -0.094  1.00  0.00     0.003 CG0
ATOM     37  C   UNL     1     -23.882 -27.988   0.433  1.00  0.00     0.015 C 
ATOM     38  C   UNL     1     -21.627 -28.698  -0.335  1.00  0.00     0.015 C 
ATOM     39  G   UNL     1     -22.739 -26.744  -1.410  1.00  0.00     0.000 G0
ENDBRANCH  35  36
ENDBRANCH  13  35
ENDBRANCH   3   7
ENDBRANCH   1   2
BRANCH   1  40
ATOM     40  C   UNL     1     -20.259 -24.697  -5.650  1.00  0.00     0.179 C 
BRANCH  40  41
ATOM     41  C   UNL     1     -20.686 -23.241  -5.561  1.00  0.00     0.259 C 
ATOM     42  O   UNL     1     -20.474 -22.444  -6.466  1.00  0.00    -0.271 OA
BRANCH  41  43
ATOM     43  N   UNL     1     -21.269 -22.819  -4.394  1.00  0.00    -0.275 N 
ATOM     44  C   UNL     1     -20.721 -21.759  -3.534  1.00  0.00     0.140 C 
ATOM     45  N   UNL     1     -22.455 -23.446  -3.946  1.00  0.00    -0.218 NA
ATOM     46  C   UNL     1     -20.353 -22.405  -2.213  1.00  0.00     0.025 C 
ATOM     47  C   UNL     1     -22.206 -24.082  -2.642  1.00  0.00     0.184 C 
ATOM     48  C   UNL     1     -21.588 -23.093  -1.640  1.00  0.00     0.035 C 
ATOM     49  H   UNL     1     -23.201 -22.743  -3.850  1.00  0.00     0.149 HD
BRANCH  47  50
ATOM     50  C   UNL     1     -23.509 -24.621  -2.107  1.00  0.00     0.324 C 
ATOM     51  O   UNL     1     -24.597 -24.336  -2.547  1.00  0.00    -0.250 OA
BRANCH  50  52
ATOM     52  O   UNL     1     -23.314 -25.449  -1.074  1.00  0.00    -0.464 OA
BRANCH  52  53
ATOM     53  C   UNL     1     -22.749 -26.745  -1.426  1.00  0.00     0.239 CG0
ATOM     54  G   UNL     1     -22.532 -27.476  -0.105  1.00  0.00     0.000 G0
ENDBRANCH  52  53
ENDBRANCH  50  52
ENDBRANCH  47  50
ENDBRANCH  41  43
ENDBRANCH  40  41
BRANCH  40  55
ATOM     55  N   UNL     1     -20.923 -25.410  -6.727  1.00  0.00    -0.344 N 
ATOM     56  C   UNL     1     -22.128 -25.979  -6.557  1.00  0.00     0.224 C 
ATOM     57  O   UNL     1     -22.618 -26.172  -5.448  1.00  0.00    -0.275 OA
ATOM     58  H   UNL     1     -20.459 -25.481  -7.643  1.00  0.00     0.164 HD
BRANCH  56  59
ATOM     59  C   UNL     1     -22.884 -26.281  -7.788  1.00  0.00     0.081 C 
ATOM     60  C   UNL     1     -24.056 -27.213  -7.656  1.00  0.00     0.018 C 
ATOM     61  C   UNL     1     -24.315 -25.772  -7.894  1.00  0.00    -0.001 C 
ATOM     62  C   UNL     1     -24.877 -25.291  -9.214  1.00  0.00     0.008 C 
ENDBRANCH  56  59
ENDBRANCH  40  55
ENDBRANCH   1  40
TORSDOF 7
ENDMDL
MODEL 11
REMARK VINA RESULT:    -4.826      3.751     11.089
REMARK INTER + INTRA:         -14.343
REMARK INTER:                 -10.227
REMARK INTRA:                  -4.116
REMARK UNBOUND:                -4.720
REMARK SMILES CCn1c(-c2cc(N3CCN(C)CC3)cnc2[C@H](C)OC)c2c3cc(ccc31)-c1csc(n1)C[C@H](NC(=O)[C@H]1C[C@@H]1C)C(=O)N1CCC[C@H](N1)C(=O)OCC(C)(C)C2
REMARK SMILES IDX 34 1 32 2 29 3 30 4 33 5 31 6 25 7 3 8 28 9 4 10 23 11 27 12
REMARK SMILES IDX 22 13 24 14 26 15 2 16 1 17 5 18 17 19 6 20 16 21 7 22 15 23
REMARK SMILES IDX 18 24 19 25 20 26 21 27 8 28 14 29 9 30 13 31 10 32 11 33
REMARK SMILES IDX 12 34 58 35 55 36 56 37 57 38 35 40 43 41 44 42 45 43 46 44
REMARK SMILES IDX 50 45 47 46 49 47 48 48 51 50 52 51 53 52 54 53 36 55 37 56
REMARK SMILES IDX 38 57 39 59 40 60 41 61 42 62
REMARK H PARENT 50 49 36 58
REMARK Flexibility Score:  160.900
ROOT
ATOM      1  C   UNL     1     -16.383 -34.801  -0.412  1.00  0.00     0.102 C 
ENDROOT
BRANCH   1   2
ATOM      2  C   UNL     1     -16.461 -33.386  -0.894  1.00  0.00     0.096 A 
ATOM      3  C   UNL     1     -16.942 -31.228  -0.892  1.00  0.00     0.081 A 
ATOM      4  C   UNL     1     -16.329 -31.287  -2.098  1.00  0.00     0.095 A 
ATOM      5  N   UNL     1     -17.084 -32.449  -0.240  1.00  0.00    -0.241 NA
ATOM      6  S   UNL     1     -15.694 -32.854  -2.350  1.00  0.00    -0.127 S 
BRANCH   3   7
ATOM      7  C   UNL     1     -17.469 -30.037  -0.199  1.00  0.00     0.002 A 
ATOM      8  N   UNL     1     -19.053 -26.835   1.858  1.00  0.00    -0.340 N 
ATOM      9  C   UNL     1     -18.386 -27.797   1.124  1.00  0.00     0.049 A 
ATOM     10  C   UNL     1     -20.288 -27.334   2.233  1.00  0.00     0.054 A 
ATOM     11  C   UNL     1     -19.207 -28.938   1.051  1.00  0.00     0.004 A 
ATOM     12  C   UNL     1     -17.112 -27.759   0.567  1.00  0.00     0.027 A 
ATOM     13  C   UNL     1     -20.415 -28.636   1.751  1.00  0.00    -0.014 A 
ATOM     14  C   UNL     1     -18.733 -30.071   0.380  1.00  0.00     0.021 A 
ATOM     15  C   UNL     1     -16.684 -28.889  -0.095  1.00  0.00     0.012 A 
BRANCH   8  16
ATOM     16  C   UNL     1     -18.513 -25.498   2.093  1.00  0.00     0.119 C 
ATOM     17  C   UNL     1     -17.518 -25.536   3.217  1.00  0.00     0.027 C 
ENDBRANCH   8  16
BRANCH  10  18
ATOM     18  C   UNL     1     -21.303 -26.557   2.951  1.00  0.00     0.025 A 
ATOM     19  C   UNL     1     -21.521 -26.677   4.343  1.00  0.00     0.078 A 
ATOM     20  C   UNL     1     -22.095 -25.674   2.221  1.00  0.00     0.039 A 
ATOM     21  N   UNL     1     -22.469 -25.956   4.956  1.00  0.00    -0.256 NA
ATOM     22  C   UNL     1     -23.081 -24.948   2.869  1.00  0.00     0.056 A 
ATOM     23  C   UNL     1     -23.228 -25.110   4.238  1.00  0.00     0.137 A 
BRANCH  19  24
ATOM     24  C   UNL     1     -20.724 -27.617   5.230  1.00  0.00     0.164 C 
ATOM     25  C   UNL     1     -21.580 -28.810   5.595  1.00  0.00     0.045 C 
BRANCH  24  26
ATOM     26  O   UNL     1     -20.398 -26.914   6.429  1.00  0.00    -0.375 OA
ATOM     27  C   UNL     1     -19.325 -25.997   6.278  1.00  0.00     0.195 C 
ENDBRANCH  24  26
ENDBRANCH  19  24
BRANCH  22  28
ATOM     28  N   UNL     1     -23.868 -24.047   2.174  1.00  0.00    -0.368 N 
ATOM     29  C   UNL     1     -23.579 -23.671   0.781  1.00  0.00     0.132 C 
ATOM     30  C   UNL     1     -25.134 -23.559   2.733  1.00  0.00     0.132 C 
ATOM     31  C   UNL     1     -24.022 -22.264   0.445  1.00  0.00     0.105 C 
ATOM     32  C   UNL     1     -25.466 -22.150   2.302  1.00  0.00     0.105 C 
ATOM     33  N   UNL     1     -25.407 -22.039   0.849  1.00  0.00    -0.303 NA
ATOM     34  C   UNL     1     -25.873 -20.720   0.418  1.00  0.00     0.105 C 
ENDBRANCH  22  28
ENDBRANCH  10  18
BRANCH  13  35
ATOM     35  C   UNL     1     -21.603 -29.544   1.899  1.00  0.00     0.048 C 
BRANCH  35  36
ATOM     36  C   UNL     1     -22.667 -29.416   0.799  1.00  0.00     0.003 CG0
ATOM     37  C   UNL     1     -22.038 -28.603  -0.333  1.00  0.00     0.015 C 
ATOM     38  C   UNL     1     -23.901 -28.666   1.311  1.00  0.00     0.015 C 
ATOM     39  G   UNL     1     -23.093 -30.786   0.280  1.00  0.00     0.000 G0
ENDBRANCH  35  36
ENDBRANCH  13  35
ENDBRANCH   3   7
ENDBRANCH   1   2
BRANCH   1  40
ATOM     40  C   UNL     1     -17.655 -35.581  -0.780  1.00  0.00     0.179 C 
BRANCH  40  41
ATOM     41  C   UNL     1     -18.507 -35.764   0.464  1.00  0.00     0.259 C 
ATOM     42  O   UNL     1     -18.764 -36.872   0.919  1.00  0.00    -0.271 OA
BRANCH  41  43
ATOM     43  N   UNL     1     -19.043 -34.642   1.039  1.00  0.00    -0.275 N 
ATOM     44  C   UNL     1     -18.691 -34.154   2.383  1.00  0.00     0.140 C 
ATOM     45  N   UNL     1     -20.021 -33.903   0.335  1.00  0.00    -0.218 NA
ATOM     46  C   UNL     1     -19.944 -34.249   3.230  1.00  0.00     0.025 C 
ATOM     47  C   UNL     1     -21.278 -33.908   1.101  1.00  0.00     0.184 C 
ATOM     48  C   UNL     1     -21.057 -33.454   2.553  1.00  0.00     0.035 C 
ATOM     49  H   UNL     1     -19.698 -32.932   0.211  1.00  0.00     0.149 HD
BRANCH  47  50
ATOM     50  C   UNL     1     -22.269 -33.000   0.416  1.00  0.00     0.324 C 
ATOM     51  O   UNL     1     -23.160 -33.383  -0.305  1.00  0.00    -0.250 OA
BRANCH  50  52
ATOM     52  O   UNL     1     -22.035 -31.713   0.696  1.00  0.00    -0.464 OA
BRANCH  52  53
ATOM     53  C   UNL     1     -23.097 -30.798   0.300  1.00  0.00     0.239 CG0
ATOM     54  G   UNL     1     -22.662 -29.420   0.789  1.00  0.00     0.000 G0
ENDBRANCH  52  53
ENDBRANCH  50  52
ENDBRANCH  47  50
ENDBRANCH  41  43
ENDBRANCH  40  41
BRANCH  40  55
ATOM     55  N   UNL     1     -18.383 -34.955  -1.870  1.00  0.00    -0.344 N 
ATOM     56  C   UNL     1     -18.959 -35.682  -2.841  1.00  0.00     0.224 C 
ATOM     57  O   UNL     1     -18.693 -36.865  -3.029  1.00  0.00    -0.275 OA
ATOM     58  H   UNL     1     -18.459 -33.929  -1.899  1.00  0.00     0.164 HD
BRANCH  56  59
ATOM     59  C   UNL     1     -20.011 -35.004  -3.625  1.00  0.00     0.081 C 
ATOM     60  C   UNL     1     -19.743 -34.800  -5.090  1.00  0.00     0.018 C 
ATOM     61  C   UNL     1     -20.750 -35.811  -4.683  1.00  0.00    -0.001 C 
ATOM     62  C   UNL     1     -22.224 -35.590  -4.944  1.00  0.00     0.008 C 
ENDBRANCH  56  59
ENDBRANCH  40  55
ENDBRANCH   1  40
TORSDOF 7
ENDMDL
MODEL 12
REMARK VINA RESULT:    -4.726      3.009      6.137
REMARK INTER + INTRA:         -14.143
REMARK INTER:                  -9.619
REMARK INTRA:                  -4.523
REMARK UNBOUND:                -4.720
REMARK SMILES CCn1c(-c2cc(N3CCN(C)CC3)cnc2[C@H](C)OC)c2c3cc(ccc31)-c1csc(n1)C[C@H](NC(=O)[C@H]1C[C@@H]1C)C(=O)N1CCC[C@H](N1)C(=O)OCC(C)(C)C2
REMARK SMILES IDX 34 1 32 2 29 3 30 4 33 5 31 6 25 7 3 8 28 9 4 10 23 11 27 12
REMARK SMILES IDX 22 13 24 14 26 15 2 16 1 17 5 18 17 19 6 20 16 21 7 22 15 23
REMARK SMILES IDX 18 24 19 25 20 26 21 27 8 28 14 29 9 30 13 31 10 32 11 33
REMARK SMILES IDX 12 34 58 35 55 36 56 37 57 38 35 40 43 41 44 42 45 43 46 44
REMARK SMILES IDX 50 45 47 46 49 47 48 48 51 50 52 51 53 52 54 53 36 55 37 56
REMARK SMILES IDX 38 57 39 59 40 60 41 61 42 62
REMARK H PARENT 50 49 36 58
REMARK Flexibility Score:  160.900
ROOT
ATOM      1  C   UNL     1     -17.956 -25.520  -0.367  1.00  0.00     0.102 C 
ENDROOT
BRANCH   1   2
ATOM      2  C   UNL     1     -17.048 -26.703  -0.495  1.00  0.00     0.096 A 
ATOM      3  C   UNL     1     -16.407 -28.818  -0.549  1.00  0.00     0.081 A 
ATOM      4  C   UNL     1     -15.202 -28.247  -0.783  1.00  0.00     0.095 A 
ATOM      5  N   UNL     1     -17.448 -27.927  -0.308  1.00  0.00    -0.241 NA
ATOM      6  S   UNL     1     -15.384 -26.555  -0.943  1.00  0.00    -0.127 S 
BRANCH   3   7
ATOM      7  C   UNL     1     -16.741 -30.255  -0.521  1.00  0.00     0.002 A 
ATOM      8  N   UNL     1     -17.830 -34.226  -0.317  1.00  0.00    -0.340 N 
ATOM      9  C   UNL     1     -17.383 -32.938  -0.541  1.00  0.00     0.049 A 
ATOM     10  C   UNL     1     -18.391 -34.292   0.947  1.00  0.00     0.054 A 
ATOM     11  C   UNL     1     -17.687 -32.166   0.595  1.00  0.00     0.004 A 
ATOM     12  C   UNL     1     -16.783 -32.394  -1.672  1.00  0.00     0.027 A 
ATOM     13  C   UNL     1     -18.321 -33.032   1.538  1.00  0.00    -0.014 A 
ATOM     14  C   UNL     1     -17.361 -30.805   0.596  1.00  0.00     0.021 A 
ATOM     15  C   UNL     1     -16.466 -31.054  -1.630  1.00  0.00     0.012 A 
BRANCH   8  16
ATOM     16  C   UNL     1     -17.635 -35.314  -1.272  1.00  0.00     0.119 C 
ATOM     17  C   UNL     1     -18.844 -35.447  -2.153  1.00  0.00     0.027 C 
ENDBRANCH   8  16
BRANCH  10  18
ATOM     18  C   UNL     1     -18.892 -35.526   1.559  1.00  0.00     0.025 A 
ATOM     19  C   UNL     1     -18.050 -36.464   2.200  1.00  0.00     0.078 A 
ATOM     20  C   UNL     1     -20.258 -35.787   1.489  1.00  0.00     0.039 A 
ATOM     21  N   UNL     1     -18.550 -37.586   2.734  1.00  0.00    -0.256 NA
ATOM     22  C   UNL     1     -20.755 -36.961   2.033  1.00  0.00     0.056 A 
ATOM     23  C   UNL     1     -19.871 -37.827   2.657  1.00  0.00     0.137 A 
BRANCH  19  24
ATOM     24  C   UNL     1     -16.547 -36.283   2.321  1.00  0.00     0.164 C 
ATOM     25  C   UNL     1     -15.866 -37.627   2.181  1.00  0.00     0.045 C 
BRANCH  24  26
ATOM     26  O   UNL     1     -16.273 -35.775   3.627  1.00  0.00    -0.375 OA
ATOM     27  C   UNL     1     -15.651 -34.499   3.623  1.00  0.00     0.195 C 
ENDBRANCH  24  26
ENDBRANCH  19  24
BRANCH  22  28
ATOM     28  N   UNL     1     -22.111 -37.237   1.998  1.00  0.00    -0.368 N 
ATOM     29  C   UNL     1     -22.625 -38.598   1.777  1.00  0.00     0.132 C 
ATOM     30  C   UNL     1     -23.101 -36.216   2.359  1.00  0.00     0.132 C 
ATOM     31  C   UNL     1     -23.968 -38.616   1.081  1.00  0.00     0.105 C 
ATOM     32  C   UNL     1     -24.403 -36.362   1.607  1.00  0.00     0.105 C 
ATOM     33  N   UNL     1     -24.914 -37.721   1.741  1.00  0.00    -0.303 NA
ATOM     34  C   UNL     1     -26.245 -37.827   1.142  1.00  0.00     0.105 C 
ENDBRANCH  22  28
ENDBRANCH  10  18
BRANCH  13  35
ATOM     35  C   UNL     1     -18.784 -32.651   2.916  1.00  0.00     0.048 C 
BRANCH  35  36
ATOM     36  C   UNL     1     -20.184 -32.024   2.987  1.00  0.00     0.003 CG0
ATOM     37  C   UNL     1     -21.105 -33.068   3.619  1.00  0.00     0.015 C 
ATOM     38  C   UNL     1     -20.711 -31.690   1.588  1.00  0.00     0.015 C 
ATOM     39  G   UNL     1     -20.179 -30.756   3.837  1.00  0.00     0.000 G0
ENDBRANCH  35  36
ENDBRANCH  13  35
ENDBRANCH   3   7
ENDBRANCH   1   2
BRANCH   1  40
ATOM     40  C   UNL     1     -19.229 -25.883   0.413  1.00  0.00     0.179 C 
BRANCH  40  41
ATOM     41  C   UNL     1     -19.463 -24.845   1.498  1.00  0.00     0.259 C 
ATOM     42  O   UNL     1     -19.222 -23.656   1.324  1.00  0.00    -0.271 OA
BRANCH  41  43
ATOM     43  N   UNL     1     -19.898 -25.288   2.719  1.00  0.00    -0.275 N 
ATOM     44  C   UNL     1     -19.481 -24.707   4.005  1.00  0.00     0.140 C 
ATOM     45  N   UNL     1     -20.779 -26.393   2.781  1.00  0.00    -0.218 NA
ATOM     46  C   UNL     1     -18.716 -25.782   4.751  1.00  0.00     0.025 C 
ATOM     47  C   UNL     1     -20.132 -27.489   3.522  1.00  0.00     0.184 C 
ATOM     48  C   UNL     1     -19.604 -27.015   4.886  1.00  0.00     0.035 C 
ATOM     49  H   UNL     1     -21.646 -26.117   3.264  1.00  0.00     0.149 HD
BRANCH  47  50
ATOM     50  C   UNL     1     -21.128 -28.606   3.707  1.00  0.00     0.324 C 
ATOM     51  O   UNL     1     -22.124 -28.526   4.386  1.00  0.00    -0.250 OA
BRANCH  50  52
ATOM     52  O   UNL     1     -20.769 -29.705   3.034  1.00  0.00    -0.464 OA
BRANCH  52  53
ATOM     53  C   UNL     1     -20.165 -30.751   3.849  1.00  0.00     0.239 CG0
ATOM     54  G   UNL     1     -20.204 -32.016   2.997  1.00  0.00     0.000 G0
ENDBRANCH  52  53
ENDBRANCH  50  52
ENDBRANCH  47  50
ENDBRANCH  41  43
ENDBRANCH  40  41
BRANCH  40  55
ATOM     55  N   UNL     1     -20.377 -26.047  -0.461  1.00  0.00    -0.344 N 
ATOM     56  C   UNL     1     -21.137 -27.154  -0.424  1.00  0.00     0.224 C 
ATOM     57  O   UNL     1     -20.775 -28.187   0.131  1.00  0.00    -0.275 OA
ATOM     58  H   UNL     1     -20.615 -25.297  -1.125  1.00  0.00     0.164 HD
BRANCH  56  59
ATOM     59  C   UNL     1     -22.486 -27.037  -1.013  1.00  0.00     0.081 C 
ATOM     60  C   UNL     1     -22.704 -25.924  -1.999  1.00  0.00     0.018 C 
ATOM     61  C   UNL     1     -22.646 -27.320  -2.500  1.00  0.00    -0.001 C 
ATOM     62  C   UNL     1     -23.885 -28.006  -3.035  1.00  0.00     0.008 C 
ENDBRANCH  56  59
ENDBRANCH  40  55
ENDBRANCH   1  40
TORSDOF 7
ENDMDL
MODEL 13
REMARK VINA RESULT:    -4.713      3.353     10.790
REMARK INTER + INTRA:         -14.116
REMARK INTER:                 -10.048
REMARK INTRA:                  -4.068
REMARK UNBOUND:                -4.720
REMARK SMILES CCn1c(-c2cc(N3CCN(C)CC3)cnc2[C@H](C)OC)c2c3cc(ccc31)-c1csc(n1)C[C@H](NC(=O)[C@H]1C[C@@H]1C)C(=O)N1CCC[C@H](N1)C(=O)OCC(C)(C)C2
REMARK SMILES IDX 34 1 32 2 29 3 30 4 33 5 31 6 25 7 3 8 28 9 4 10 23 11 27 12
REMARK SMILES IDX 22 13 24 14 26 15 2 16 1 17 5 18 17 19 6 20 16 21 7 22 15 23
REMARK SMILES IDX 18 24 19 25 20 26 21 27 8 28 14 29 9 30 13 31 10 32 11 33
REMARK SMILES IDX 12 34 58 35 55 36 56 37 57 38 35 40 43 41 44 42 45 43 46 44
REMARK SMILES IDX 50 45 47 46 49 47 48 48 51 50 52 51 53 52 54 53 36 55 37 56
REMARK SMILES IDX 38 57 39 59 40 60 41 61 42 62
REMARK H PARENT 50 49 36 58
REMARK Flexibility Score:  160.900
ROOT
ATOM      1  C   UNL     1     -15.883 -36.845   0.088  1.00  0.00     0.102 C 
ENDROOT
BRANCH   1   2
ATOM      2  C   UNL     1     -15.644 -35.844   1.174  1.00  0.00     0.096 A 
ATOM      3  C   UNL     1     -15.848 -33.980   2.345  1.00  0.00     0.081 A 
ATOM      4  C   UNL     1     -14.912 -34.586   3.112  1.00  0.00     0.095 A 
ATOM      5  N   UNL     1     -16.209 -34.671   1.193  1.00  0.00    -0.241 NA
ATOM      6  S   UNL     1     -14.621 -36.167   2.531  1.00  0.00    -0.127 S 
BRANCH   3   7
ATOM      7  C   UNL     1     -16.523 -32.690   2.586  1.00  0.00     0.002 A 
ATOM      8  N   UNL     1     -18.589 -29.184   3.247  1.00  0.00    -0.340 N 
ATOM      9  C   UNL     1     -17.756 -30.277   3.104  1.00  0.00     0.049 A 
ATOM     10  C   UNL     1     -19.768 -29.428   2.563  1.00  0.00     0.054 A 
ATOM     11  C   UNL     1     -18.429 -31.243   2.334  1.00  0.00     0.004 A 
ATOM     12  C   UNL     1     -16.489 -30.499   3.636  1.00  0.00     0.027 A 
ATOM     13  C   UNL     1     -19.703 -30.696   1.988  1.00  0.00    -0.014 A 
ATOM     14  C   UNL     1     -17.798 -32.465   2.078  1.00  0.00     0.021 A 
ATOM     15  C   UNL     1     -15.895 -31.709   3.354  1.00  0.00     0.012 A 
BRANCH   8  16
ATOM     16  C   UNL     1     -18.192 -27.967   3.951  1.00  0.00     0.119 C 
ATOM     17  C   UNL     1     -17.725 -26.933   2.967  1.00  0.00     0.027 C 
ENDBRANCH   8  16
BRANCH  10  18
ATOM     18  C   UNL     1     -20.852 -28.451   2.424  1.00  0.00     0.025 A 
ATOM     19  C   UNL     1     -21.911 -28.339   3.354  1.00  0.00     0.078 A 
ATOM     20  C   UNL     1     -20.840 -27.608   1.315  1.00  0.00     0.039 A 
ATOM     21  N   UNL     1     -22.889 -27.440   3.180  1.00  0.00    -0.256 NA
ATOM     22  C   UNL     1     -21.868 -26.695   1.143  1.00  0.00     0.056 A 
ATOM     23  C   UNL     1     -22.866 -26.635   2.103  1.00  0.00     0.137 A 
BRANCH  19  24
ATOM     24  C   UNL     1     -22.027 -29.216   4.589  1.00  0.00     0.164 C 
ATOM     25  C   UNL     1     -23.440 -29.749   4.696  1.00  0.00     0.045 C 
BRANCH  24  26
ATOM     26  O   UNL     1     -21.768 -28.398   5.730  1.00  0.00    -0.375 OA
ATOM     27  C   UNL     1     -22.084 -29.024   6.964  1.00  0.00     0.195 C 
ENDBRANCH  24  26
ENDBRANCH  19  24
BRANCH  22  28
ATOM     28  N   UNL     1     -21.871 -25.829   0.063  1.00  0.00    -0.368 N 
ATOM     29  C   UNL     1     -21.906 -26.314  -1.325  1.00  0.00     0.132 C 
ATOM     30  C   UNL     1     -22.021 -24.383   0.253  1.00  0.00     0.132 C 
ATOM     31  C   UNL     1     -21.211 -25.383  -2.295  1.00  0.00     0.105 C 
ATOM     32  C   UNL     1     -21.295 -23.570  -0.793  1.00  0.00     0.105 C 
ATOM     33  N   UNL     1     -21.679 -24.010  -2.130  1.00  0.00    -0.303 NA
ATOM     34  C   UNL     1     -21.096 -23.130  -3.144  1.00  0.00     0.105 C 
ENDBRANCH  22  28
ENDBRANCH  10  18
BRANCH  13  35
ATOM     35  C   UNL     1     -20.747 -31.357   1.134  1.00  0.00     0.048 C 
BRANCH  35  36
ATOM     36  C   UNL     1     -21.502 -32.517   1.802  1.00  0.00     0.003 CG0
ATOM     37  C   UNL     1     -22.983 -32.330   1.471  1.00  0.00     0.015 C 
ATOM     38  C   UNL     1     -21.333 -32.480   3.324  1.00  0.00     0.015 C 
ATOM     39  G   UNL     1     -21.019 -33.865   1.276  1.00  0.00     0.000 G0
ENDBRANCH  35  36
ENDBRANCH  13  35
ENDBRANCH   3   7
ENDBRANCH   1   2
BRANCH   1  40
ATOM     40  C   UNL     1     -17.363 -37.255   0.030  1.00  0.00     0.179 C 
BRANCH  40  41
ATOM     41  C   UNL     1     -17.681 -37.786  -1.358  1.00  0.00     0.259 C 
ATOM     42  O   UNL     1     -16.898 -38.494  -1.979  1.00  0.00    -0.271 OA
BRANCH  41  43
ATOM     43  N   UNL     1     -18.861 -37.393  -1.934  1.00  0.00    -0.275 N 
ATOM     44  C   UNL     1     -19.093 -37.341  -3.387  1.00  0.00     0.140 C 
ATOM     45  N   UNL     1     -19.930 -36.975  -1.108  1.00  0.00    -0.218 NA
ATOM     46  C   UNL     1     -19.326 -35.887  -3.746  1.00  0.00     0.025 C 
ATOM     47  C   UNL     1     -20.255 -35.571  -1.408  1.00  0.00     0.184 C 
ATOM     48  C   UNL     1     -20.487 -35.354  -2.912  1.00  0.00     0.035 C 
ATOM     49  H   UNL     1     -20.755 -37.566  -1.286  1.00  0.00     0.149 HD
BRANCH  47  50
ATOM     50  C   UNL     1     -21.486 -35.180  -0.628  1.00  0.00     0.324 C 
ATOM     51  O   UNL     1     -22.454 -35.887  -0.482  1.00  0.00    -0.250 OA
BRANCH  50  52
ATOM     52  O   UNL     1     -21.380 -33.944  -0.126  1.00  0.00    -0.464 OA
BRANCH  52  53
ATOM     53  C   UNL     1     -21.028 -33.886   1.287  1.00  0.00     0.239 CG0
ATOM     54  G   UNL     1     -21.517 -32.528   1.781  1.00  0.00     0.000 G0
ENDBRANCH  52  53
ENDBRANCH  50  52
ENDBRANCH  47  50
ENDBRANCH  41  43
ENDBRANCH  40  41
BRANCH  40  55
ATOM     55  N   UNL     1     -17.711 -38.195   1.082  1.00  0.00    -0.344 N 
ATOM     56  C   UNL     1     -18.748 -37.976   1.906  1.00  0.00     0.224 C 
ATOM     57  O   UNL     1     -19.291 -36.880   2.011  1.00  0.00    -0.275 OA
ATOM     58  H   UNL     1     -17.149 -39.049   1.198  1.00  0.00     0.164 HD
BRANCH  56  59
ATOM     59  C   UNL     1     -19.270 -39.157   2.622  1.00  0.00     0.081 C 
ATOM     60  C   UNL     1     -18.371 -40.359   2.699  1.00  0.00     0.018 C 
ATOM     61  C   UNL     1     -18.598 -39.558   3.928  1.00  0.00    -0.001 C 
ATOM     62  C   UNL     1     -19.405 -40.116   5.081  1.00  0.00     0.008 C 
ENDBRANCH  56  59
ENDBRANCH  40  55
ENDBRANCH   1  40
TORSDOF 7
ENDMDL
MODEL 14
REMARK VINA RESULT:    -4.686      5.519     12.910
REMARK INTER + INTRA:         -14.063
REMARK INTER:                 -10.497
REMARK INTRA:                  -3.566
REMARK UNBOUND:                -4.720
REMARK SMILES CCn1c(-c2cc(N3CCN(C)CC3)cnc2[C@H](C)OC)c2c3cc(ccc31)-c1csc(n1)C[C@H](NC(=O)[C@H]1C[C@@H]1C)C(=O)N1CCC[C@H](N1)C(=O)OCC(C)(C)C2
REMARK SMILES IDX 34 1 32 2 29 3 30 4 33 5 31 6 25 7 3 8 28 9 4 10 23 11 27 12
REMARK SMILES IDX 22 13 24 14 26 15 2 16 1 17 5 18 17 19 6 20 16 21 7 22 15 23
REMARK SMILES IDX 18 24 19 25 20 26 21 27 8 28 14 29 9 30 13 31 10 32 11 33
REMARK SMILES IDX 12 34 58 35 55 36 56 37 57 38 35 40 43 41 44 42 45 43 46 44
REMARK SMILES IDX 50 45 47 46 49 47 48 48 51 50 52 51 53 52 54 53 36 55 37 56
REMARK SMILES IDX 38 57 39 59 40 60 41 61 42 62
REMARK H PARENT 50 49 36 58
REMARK Flexibility Score:  160.900
ROOT
ATOM      1  C   UNL     1     -16.603 -29.132   2.892  1.00  0.00     0.102 C 
ENDROOT
BRANCH   1   2
ATOM      2  C   UNL     1     -17.952 -28.816   3.459  1.00  0.00     0.096 A 
ATOM      3  C   UNL     1     -19.677 -27.608   4.132  1.00  0.00     0.081 A 
ATOM      4  C   UNL     1     -20.175 -28.832   4.425  1.00  0.00     0.095 A 
ATOM      5  N   UNL     1     -18.372 -27.599   3.651  1.00  0.00    -0.241 NA
ATOM      6  S   UNL     1     -19.097 -30.042   3.879  1.00  0.00    -0.127 S 
BRANCH   3   7
ATOM      7  C   UNL     1     -20.348 -26.300   4.261  1.00  0.00     0.002 A 
ATOM      8  N   UNL     1     -22.201 -22.621   4.419  1.00  0.00    -0.340 N 
ATOM      9  C   UNL     1     -21.664 -23.890   4.523  1.00  0.00     0.049 A 
ATOM     10  C   UNL     1     -21.603 -21.967   3.355  1.00  0.00     0.054 A 
ATOM     11  C   UNL     1     -20.723 -24.052   3.490  1.00  0.00     0.004 A 
ATOM     12  C   UNL     1     -21.975 -24.911   5.414  1.00  0.00     0.027 A 
ATOM     13  C   UNL     1     -20.684 -22.826   2.756  1.00  0.00    -0.014 A 
ATOM     14  C   UNL     1     -20.061 -25.279   3.362  1.00  0.00     0.021 A 
ATOM     15  C   UNL     1     -21.295 -26.101   5.265  1.00  0.00     0.012 A 
BRANCH   8  16
ATOM     16  C   UNL     1     -23.181 -22.092   5.365  1.00  0.00     0.119 C 
ATOM     17  C   UNL     1     -24.572 -22.404   4.891  1.00  0.00     0.027 C 
ENDBRANCH   8  16
BRANCH  10  18
ATOM     18  C   UNL     1     -21.864 -20.569   3.000  1.00  0.00     0.025 A 
ATOM     19  C   UNL     1     -20.968 -19.518   3.303  1.00  0.00     0.078 A 
ATOM     20  C   UNL     1     -23.057 -20.267   2.348  1.00  0.00     0.039 A 
ATOM     21  N   UNL     1     -21.253 -18.252   2.972  1.00  0.00    -0.256 NA
ATOM     22  C   UNL     1     -23.343 -18.950   2.027  1.00  0.00     0.056 A 
ATOM     23  C   UNL     1     -22.411 -17.974   2.345  1.00  0.00     0.137 A 
BRANCH  19  24
ATOM     24  C   UNL     1     -19.647 -19.735   4.021  1.00  0.00     0.164 C 
ATOM     25  C   UNL     1     -19.835 -19.490   5.503  1.00  0.00     0.045 C 
BRANCH  24  26
ATOM     26  O   UNL     1     -18.717 -18.774   3.521  1.00  0.00    -0.375 OA
ATOM     27  C   UNL     1     -17.935 -19.250   2.435  1.00  0.00     0.195 C 
ENDBRANCH  24  26
ENDBRANCH  19  24
BRANCH  22  28
ATOM     28  N   UNL     1     -24.511 -18.622   1.360  1.00  0.00    -0.368 N 
ATOM     29  C   UNL     1     -24.588 -18.593  -0.109  1.00  0.00     0.132 C 
ATOM     30  C   UNL     1     -25.777 -18.463   2.083  1.00  0.00     0.132 C 
ATOM     31  C   UNL     1     -25.595 -17.591  -0.628  1.00  0.00     0.105 C 
ATOM     32  C   UNL     1     -26.698 -17.448   1.448  1.00  0.00     0.105 C 
ATOM     33  N   UNL     1     -26.886 -17.753   0.035  1.00  0.00    -0.303 NA
ATOM     34  C   UNL     1     -27.893 -16.865  -0.549  1.00  0.00     0.105 C 
ENDBRANCH  22  28
ENDBRANCH  10  18
BRANCH  13  35
ATOM     35  C   UNL     1     -19.789 -22.523   1.587  1.00  0.00     0.048 C 
BRANCH  35  36
ATOM     36  C   UNL     1     -20.365 -22.883   0.210  1.00  0.00     0.003 CG0
ATOM     37  C   UNL     1     -21.095 -21.641  -0.303  1.00  0.00     0.015 C 
ATOM     38  C   UNL     1     -21.373 -24.032   0.317  1.00  0.00     0.015 C 
ATOM     39  G   UNL     1     -19.260 -23.275  -0.766  1.00  0.00     0.000 G0
ENDBRANCH  35  36
ENDBRANCH  13  35
ENDBRANCH   3   7
ENDBRANCH   1   2
BRANCH   1  40
ATOM     40  C   UNL     1     -16.666 -29.275   1.364  1.00  0.00     0.179 C 
BRANCH  40  41
ATOM     41  C   UNL     1     -15.477 -28.560   0.745  1.00  0.00     0.259 C 
ATOM     42  O   UNL     1     -14.378 -28.536   1.287  1.00  0.00    -0.271 OA
BRANCH  41  43
ATOM     43  N   UNL     1     -15.684 -27.875  -0.424  1.00  0.00    -0.275 N 
ATOM     44  C   UNL     1     -14.642 -27.634  -1.435  1.00  0.00     0.140 C 
ATOM     45  N   UNL     1     -16.961 -27.327  -0.688  1.00  0.00    -0.218 NA
ATOM     46  C   UNL     1     -14.424 -26.135  -1.497  1.00  0.00     0.025 C 
ATOM     47  C   UNL     1     -16.846 -25.863  -0.800  1.00  0.00     0.184 C 
ATOM     48  C   UNL     1     -15.755 -25.456  -1.803  1.00  0.00     0.035 C 
ATOM     49  H   UNL     1     -17.325 -27.712  -1.571  1.00  0.00     0.149 HD
BRANCH  47  50
ATOM     50  C   UNL     1     -18.181 -25.302  -1.224  1.00  0.00     0.324 C 
ATOM     51  O   UNL     1     -18.709 -25.528  -2.287  1.00  0.00    -0.250 OA
BRANCH  50  52
ATOM     52  O   UNL     1     -18.706 -24.511  -0.281  1.00  0.00    -0.464 OA
BRANCH  52  53
ATOM     53  C   UNL     1     -19.253 -23.253  -0.772  1.00  0.00     0.239 CG0
ATOM     54  G   UNL     1     -20.357 -22.870   0.208  1.00  0.00     0.000 G0
ENDBRANCH  52  53
ENDBRANCH  50  52
ENDBRANCH  47  50
ENDBRANCH  41  43
ENDBRANCH  40  41
BRANCH  40  55
ATOM     55  N   UNL     1     -16.761 -30.664   0.949  1.00  0.00    -0.344 N 
ATOM     56  C   UNL     1     -17.370 -31.017  -0.195  1.00  0.00     0.224 C 
ATOM     57  O   UNL     1     -18.105 -30.254  -0.816  1.00  0.00    -0.275 OA
ATOM     58  H   UNL     1     -16.352 -31.396   1.546  1.00  0.00     0.164 HD
BRANCH  56  59
ATOM     59  C   UNL     1     -17.035 -32.353  -0.725  1.00  0.00     0.081 C 
ATOM     60  C   UNL     1     -17.043 -32.515  -2.220  1.00  0.00     0.018 C 
ATOM     61  C   UNL     1     -15.740 -32.509  -1.510  1.00  0.00    -0.001 C 
ATOM     62  C   UNL     1     -14.909 -33.770  -1.401  1.00  0.00     0.008 C 
ENDBRANCH  56  59
ENDBRANCH  40  55
ENDBRANCH   1  40
TORSDOF 7
ENDMDL
MODEL 15
REMARK VINA RESULT:    -4.640      3.405     10.511
REMARK INTER + INTRA:         -13.971
REMARK INTER:                 -10.268
REMARK INTRA:                  -3.703
REMARK UNBOUND:                -4.720
REMARK SMILES CCn1c(-c2cc(N3CCN(C)CC3)cnc2[C@H](C)OC)c2c3cc(ccc31)-c1csc(n1)C[C@H](NC(=O)[C@H]1C[C@@H]1C)C(=O)N1CCC[C@H](N1)C(=O)OCC(C)(C)C2
REMARK SMILES IDX 34 1 32 2 29 3 30 4 33 5 31 6 25 7 3 8 28 9 4 10 23 11 27 12
REMARK SMILES IDX 22 13 24 14 26 15 2 16 1 17 5 18 17 19 6 20 16 21 7 22 15 23
REMARK SMILES IDX 18 24 19 25 20 26 21 27 8 28 14 29 9 30 13 31 10 32 11 33
REMARK SMILES IDX 12 34 58 35 55 36 56 37 57 38 35 40 43 41 44 42 45 43 46 44
REMARK SMILES IDX 50 45 47 46 49 47 48 48 51 50 52 51 53 52 54 53 36 55 37 56
REMARK SMILES IDX 38 57 39 59 40 60 41 61 42 62
REMARK H PARENT 50 49 36 58
REMARK Flexibility Score:  160.900
ROOT
ATOM      1  C   UNL     1     -15.999 -36.970  -0.125  1.00  0.00     0.102 C 
ENDROOT
BRANCH   1   2
ATOM      2  C   UNL     1     -15.645 -35.886   0.844  1.00  0.00     0.096 A 
ATOM      3  C   UNL     1     -15.782 -33.971   1.940  1.00  0.00     0.081 A 
ATOM      4  C   UNL     1     -14.670 -34.456   2.541  1.00  0.00     0.095 A 
ATOM      5  N   UNL     1     -16.293 -34.760   0.915  1.00  0.00    -0.241 NA
ATOM      6  S   UNL     1     -14.361 -36.046   1.992  1.00  0.00    -0.127 S 
BRANCH   3   7
ATOM      7  C   UNL     1     -16.506 -32.722   2.244  1.00  0.00     0.002 A 
ATOM      8  N   UNL     1     -18.705 -29.339   3.090  1.00  0.00    -0.340 N 
ATOM      9  C   UNL     1     -17.827 -30.384   2.877  1.00  0.00     0.049 A 
ATOM     10  C   UNL     1     -19.913 -29.638   2.483  1.00  0.00     0.054 A 
ATOM     11  C   UNL     1     -18.498 -31.376   2.140  1.00  0.00     0.004 A 
ATOM     12  C   UNL     1     -16.518 -30.543   3.320  1.00  0.00     0.027 A 
ATOM     13  C   UNL     1     -19.820 -30.895   1.887  1.00  0.00    -0.014 A 
ATOM     14  C   UNL     1     -17.822 -32.561   1.825  1.00  0.00     0.021 A 
ATOM     15  C   UNL     1     -15.881 -31.717   2.981  1.00  0.00     0.012 A 
BRANCH   8  16
ATOM     16  C   UNL     1     -18.327 -28.110   3.783  1.00  0.00     0.119 C 
ATOM     17  C   UNL     1     -17.013 -27.607   3.257  1.00  0.00     0.027 C 
ENDBRANCH   8  16
BRANCH  10  18
ATOM     18  C   UNL     1     -21.054 -28.719   2.430  1.00  0.00     0.025 A 
ATOM     19  C   UNL     1     -21.198 -27.728   1.431  1.00  0.00     0.078 A 
ATOM     20  C   UNL     1     -22.030 -28.823   3.418  1.00  0.00     0.039 A 
ATOM     21  N   UNL     1     -22.251 -26.901   1.428  1.00  0.00    -0.256 NA
ATOM     22  C   UNL     1     -23.104 -27.948   3.408  1.00  0.00     0.056 A 
ATOM     23  C   UNL     1     -23.184 -27.010   2.391  1.00  0.00     0.137 A 
BRANCH  19  24
ATOM     24  C   UNL     1     -20.187 -27.522   0.315  1.00  0.00     0.164 C 
ATOM     25  C   UNL     1     -19.338 -26.308   0.626  1.00  0.00     0.045 C 
BRANCH  24  26
ATOM     26  O   UNL     1     -20.913 -27.267  -0.888  1.00  0.00    -0.375 OA
ATOM     27  C   UNL     1     -20.973 -25.893  -1.237  1.00  0.00     0.195 C 
ENDBRANCH  24  26
ENDBRANCH  19  24
BRANCH  22  28
ATOM     28  N   UNL     1     -24.100 -28.042   4.365  1.00  0.00    -0.368 N 
ATOM     29  C   UNL     1     -23.899 -28.759   5.633  1.00  0.00     0.132 C 
ATOM     30  C   UNL     1     -25.345 -27.277   4.238  1.00  0.00     0.132 C 
ATOM     31  C   UNL     1     -25.175 -29.361   6.181  1.00  0.00     0.105 C 
ATOM     32  C   UNL     1     -26.537 -27.981   4.843  1.00  0.00     0.105 C 
ATOM     33  N   UNL     1     -26.248 -28.371   6.218  1.00  0.00    -0.303 NA
ATOM     34  C   UNL     1     -27.446 -28.918   6.857  1.00  0.00     0.105 C 
ENDBRANCH  22  28
ENDBRANCH  10  18
BRANCH  13  35
ATOM     35  C   UNL     1     -20.883 -31.602   1.095  1.00  0.00     0.048 C 
BRANCH  35  36
ATOM     36  C   UNL     1     -21.750 -32.586   1.895  1.00  0.00     0.003 CG0
ATOM     37  C   UNL     1     -23.187 -32.065   1.829  1.00  0.00     0.015 C 
ATOM     38  C   UNL     1     -21.316 -32.636   3.364  1.00  0.00     0.015 C 
ATOM     39  G   UNL     1     -21.681 -33.990   1.304  1.00  0.00     0.000 G0
ENDBRANCH  35  36
ENDBRANCH  13  35
ENDBRANCH   3   7
ENDBRANCH   1   2
BRANCH   1  40
ATOM     40  C   UNL     1     -17.515 -37.219  -0.147  1.00  0.00     0.179 C 
BRANCH  40  41
ATOM     41  C   UNL     1     -17.907 -37.799  -1.496  1.00  0.00     0.259 C 
ATOM     42  O   UNL     1     -17.254 -38.682  -2.039  1.00  0.00    -0.271 OA
BRANCH  41  43
ATOM     43  N   UNL     1     -18.993 -37.256  -2.131  1.00  0.00    -0.275 N 
ATOM     44  C   UNL     1     -19.096 -37.082  -3.588  1.00  0.00     0.140 C 
ATOM     45  N   UNL     1     -20.086 -36.794  -1.361  1.00  0.00    -0.218 NA
ATOM     46  C   UNL     1     -19.166 -35.592  -3.854  1.00  0.00     0.025 C 
ATOM     47  C   UNL     1     -20.257 -35.348  -1.578  1.00  0.00     0.184 C 
ATOM     48  C   UNL     1     -20.340 -35.007  -3.075  1.00  0.00     0.035 C 
ATOM     49  H   UNL     1     -20.943 -37.289  -1.647  1.00  0.00     0.149 HD
BRANCH  47  50
ATOM     50  C   UNL     1     -21.508 -34.894  -0.869  1.00  0.00     0.324 C 
ATOM     51  O   UNL     1     -22.591 -35.415  -0.994  1.00  0.00    -0.250 OA
BRANCH  50  52
ATOM     52  O   UNL     1     -21.275 -33.832  -0.088  1.00  0.00    -0.464 OA
BRANCH  52  53
ATOM     53  C   UNL     1     -21.668 -33.999   1.305  1.00  0.00     0.239 CG0
ATOM     54  G   UNL     1     -21.766 -32.589   1.880  1.00  0.00     0.000 G0
ENDBRANCH  52  53
ENDBRANCH  50  52
ENDBRANCH  47  50
ENDBRANCH  41  43
ENDBRANCH  40  41
BRANCH  40  55
ATOM     55  N   UNL     1     -17.949 -38.045   0.965  1.00  0.00    -0.344 N 
ATOM     56  C   UNL     1     -18.989 -37.694   1.739  1.00  0.00     0.224 C 
ATOM     57  O   UNL     1     -19.460 -36.561   1.740  1.00  0.00    -0.275 OA
ATOM     58  H   UNL     1     -17.448 -38.922   1.165  1.00  0.00     0.164 HD
BRANCH  56  59
ATOM     59  C   UNL     1     -19.605 -38.777   2.531  1.00  0.00     0.081 C 
ATOM     60  C   UNL     1     -18.706 -39.903   2.961  1.00  0.00     0.018 C 
ATOM     61  C   UNL     1     -19.176 -38.935   3.984  1.00  0.00    -0.001 C 
ATOM     62  C   UNL     1     -20.168 -39.351   5.049  1.00  0.00     0.008 C 
ENDBRANCH  56  59
ENDBRANCH  40  55
ENDBRANCH   1  40
TORSDOF 7
ENDMDL
MODEL 16
REMARK VINA RESULT:    -4.631      2.983      5.820
REMARK INTER + INTRA:         -13.953
REMARK INTER:                 -10.033
REMARK INTRA:                  -3.920
REMARK UNBOUND:                -4.720
REMARK SMILES CCn1c(-c2cc(N3CCN(C)CC3)cnc2[C@H](C)OC)c2c3cc(ccc31)-c1csc(n1)C[C@H](NC(=O)[C@H]1C[C@@H]1C)C(=O)N1CCC[C@H](N1)C(=O)OCC(C)(C)C2
REMARK SMILES IDX 34 1 32 2 29 3 30 4 33 5 31 6 25 7 3 8 28 9 4 10 23 11 27 12
REMARK SMILES IDX 22 13 24 14 26 15 2 16 1 17 5 18 17 19 6 20 16 21 7 22 15 23
REMARK SMILES IDX 18 24 19 25 20 26 21 27 8 28 14 29 9 30 13 31 10 32 11 33
REMARK SMILES IDX 12 34 58 35 55 36 56 37 57 38 35 40 43 41 44 42 45 43 46 44
REMARK SMILES IDX 50 45 47 46 49 47 48 48 51 50 52 51 53 52 54 53 36 55 37 56
REMARK SMILES IDX 38 57 39 59 40 60 41 61 42 62
REMARK H PARENT 50 49 36 58
REMARK Flexibility Score:  160.900
ROOT
ATOM      1  C   UNL     1     -15.814 -26.749   0.660  1.00  0.00     0.102 C 
ENDROOT
BRANCH   1   2
ATOM      2  C   UNL     1     -15.184 -28.018   1.143  1.00  0.00     0.096 A 
ATOM      3  C   UNL     1     -14.973 -30.165   1.627  1.00  0.00     0.081 A 
ATOM      4  C   UNL     1     -13.744 -29.757   2.024  1.00  0.00     0.095 A 
ATOM      5  N   UNL     1     -15.821 -29.151   1.194  1.00  0.00    -0.241 NA
ATOM      6  S   UNL     1     -13.531 -28.104   1.644  1.00  0.00    -0.127 S 
BRANCH   3   7
ATOM      7  C   UNL     1     -15.508 -31.540   1.598  1.00  0.00     0.002 A 
ATOM      8  N   UNL     1     -17.153 -35.314   1.391  1.00  0.00    -0.340 N 
ATOM      9  C   UNL     1     -16.448 -34.132   1.509  1.00  0.00     0.049 A 
ATOM     10  C   UNL     1     -18.488 -35.020   1.173  1.00  0.00     0.054 A 
ATOM     11  C   UNL     1     -17.351 -33.066   1.340  1.00  0.00     0.004 A 
ATOM     12  C   UNL     1     -15.085 -33.930   1.702  1.00  0.00     0.027 A 
ATOM     13  C   UNL     1     -18.644 -33.635   1.134  1.00  0.00    -0.014 A 
ATOM     14  C   UNL     1     -16.865 -31.754   1.384  1.00  0.00     0.021 A 
ATOM     15  C   UNL     1     -14.646 -32.625   1.750  1.00  0.00     0.012 A 
BRANCH   8  16
ATOM     16  C   UNL     1     -16.537 -36.628   1.560  1.00  0.00     0.119 C 
ATOM     17  C   UNL     1     -16.630 -37.057   2.996  1.00  0.00     0.027 C 
ENDBRANCH   8  16
BRANCH  10  18
ATOM     18  C   UNL     1     -19.547 -36.030   1.085  1.00  0.00     0.025 A 
ATOM     19  C   UNL     1     -19.923 -36.646  -0.131  1.00  0.00     0.078 A 
ATOM     20  C   UNL     1     -20.218 -36.384   2.253  1.00  0.00     0.039 A 
ATOM     21  N   UNL     1     -20.906 -37.555  -0.168  1.00  0.00    -0.256 NA
ATOM     22  C   UNL     1     -21.243 -37.315   2.193  1.00  0.00     0.056 A 
ATOM     23  C   UNL     1     -21.547 -37.885   0.967  1.00  0.00     0.137 A 
BRANCH  19  24
ATOM     24  C   UNL     1     -19.265 -36.325  -1.462  1.00  0.00     0.164 C 
ATOM     25  C   UNL     1     -20.135 -35.354  -2.231  1.00  0.00     0.045 C 
BRANCH  24  26
ATOM     26  O   UNL     1     -19.178 -37.539  -2.209  1.00  0.00    -0.375 OA
ATOM     27  C   UNL     1     -18.005 -38.291  -1.937  1.00  0.00     0.195 C 
ENDBRANCH  24  26
ENDBRANCH  19  24
BRANCH  22  28
ATOM     28  N   UNL     1     -21.913 -37.702   3.341  1.00  0.00    -0.368 N 
ATOM     29  C   UNL     1     -21.980 -39.108   3.768  1.00  0.00     0.132 C 
ATOM     30  C   UNL     1     -22.436 -36.707   4.284  1.00  0.00     0.132 C 
ATOM     31  C   UNL     1     -23.244 -39.433   4.533  1.00  0.00     0.105 C 
ATOM     32  C   UNL     1     -23.688 -37.166   4.994  1.00  0.00     0.105 C 
ATOM     33  N   UNL     1     -23.470 -38.471   5.608  1.00  0.00    -0.303 NA
ATOM     34  C   UNL     1     -24.626 -38.852   6.421  1.00  0.00     0.105 C 
ENDBRANCH  22  28
ENDBRANCH  10  18
BRANCH  13  35
ATOM     35  C   UNL     1     -19.927 -32.874   0.950  1.00  0.00     0.048 C 
BRANCH  35  36
ATOM     36  C   UNL     1     -20.473 -32.194   2.214  1.00  0.00     0.003 CG0
ATOM     37  C   UNL     1     -19.700 -32.775   3.399  1.00  0.00     0.015 C 
ATOM     38  C   UNL     1     -21.962 -32.499   2.406  1.00  0.00     0.015 C 
ATOM     39  G   UNL     1     -20.275 -30.682   2.157  1.00  0.00     0.000 G0
ENDBRANCH  35  36
ENDBRANCH  13  35
ENDBRANCH   3   7
ENDBRANCH   1   2
BRANCH   1  40
ATOM     40  C   UNL     1     -17.284 -26.661   1.098  1.00  0.00     0.179 C 
BRANCH  40  41
ATOM     41  C   UNL     1     -17.360 -25.998   2.464  1.00  0.00     0.259 C 
ATOM     42  O   UNL     1     -16.402 -25.419   2.960  1.00  0.00    -0.271 OA
BRANCH  41  43
ATOM     43  N   UNL     1     -18.531 -26.121   3.166  1.00  0.00    -0.275 N 
ATOM     44  C   UNL     1     -18.971 -25.180   4.208  1.00  0.00     0.140 C 
ATOM     45  N   UNL     1     -19.373 -27.230   2.920  1.00  0.00    -0.218 NA
ATOM     46  C   UNL     1     -19.006 -25.948   5.514  1.00  0.00     0.025 C 
ATOM     47  C   UNL     1     -19.497 -28.028   4.150  1.00  0.00     0.184 C 
ATOM     48  C   UNL     1     -19.917 -27.160   5.348  1.00  0.00     0.035 C 
ATOM     49  H   UNL     1     -20.304 -26.898   2.629  1.00  0.00     0.149 HD
BRANCH  47  50
ATOM     50  C   UNL     1     -20.509 -29.123   3.920  1.00  0.00     0.324 C 
ATOM     51  O   UNL     1     -21.697 -29.004   4.101  1.00  0.00    -0.250 OA
BRANCH  50  52
ATOM     52  O   UNL     1     -19.927 -30.252   3.499  1.00  0.00    -0.464 OA
BRANCH  52  53
ATOM     53  C   UNL     1     -20.302 -30.670   2.154  1.00  0.00     0.239 CG0
ATOM     54  G   UNL     1     -20.464 -32.185   2.220  1.00  0.00     0.000 G0
ENDBRANCH  52  53
ENDBRANCH  50  52
ENDBRANCH  47  50
ENDBRANCH  41  43
ENDBRANCH  40  41
BRANCH  40  55
ATOM     55  N   UNL     1     -18.111 -25.996   0.106  1.00  0.00    -0.344 N 
ATOM     56  C   UNL     1     -19.260 -26.536  -0.330  1.00  0.00     0.224 C 
ATOM     57  O   UNL     1     -19.552 -27.713  -0.139  1.00  0.00    -0.275 OA
ATOM     58  H   UNL     1     -17.808 -25.087  -0.272  1.00  0.00     0.164 HD
BRANCH  56  59
ATOM     59  C   UNL     1     -20.210 -25.611  -0.978  1.00  0.00     0.081 C 
ATOM     60  C   UNL     1     -19.666 -24.729  -2.068  1.00  0.00     0.018 C 
ATOM     61  C   UNL     1     -20.562 -25.852  -2.440  1.00  0.00    -0.001 C 
ATOM     62  C   UNL     1     -21.959 -25.592  -2.959  1.00  0.00     0.008 C 
ENDBRANCH  56  59
ENDBRANCH  40  55
ENDBRANCH   1  40
TORSDOF 7
ENDMDL
MODEL 17
REMARK VINA RESULT:    -4.558      4.656     11.272
REMARK INTER + INTRA:         -13.807
REMARK INTER:                 -10.243
REMARK INTRA:                  -3.564
REMARK UNBOUND:                -4.720
REMARK SMILES CCn1c(-c2cc(N3CCN(C)CC3)cnc2[C@H](C)OC)c2c3cc(ccc31)-c1csc(n1)C[C@H](NC(=O)[C@H]1C[C@@H]1C)C(=O)N1CCC[C@H](N1)C(=O)OCC(C)(C)C2
REMARK SMILES IDX 34 1 32 2 29 3 30 4 33 5 31 6 25 7 3 8 28 9 4 10 23 11 27 12
REMARK SMILES IDX 22 13 24 14 26 15 2 16 1 17 5 18 17 19 6 20 16 21 7 22 15 23
REMARK SMILES IDX 18 24 19 25 20 26 21 27 8 28 14 29 9 30 13 31 10 32 11 33
REMARK SMILES IDX 12 34 58 35 55 36 56 37 57 38 35 40 43 41 44 42 45 43 46 44
REMARK SMILES IDX 50 45 47 46 49 47 48 48 51 50 52 51 53 52 54 53 36 55 37 56
REMARK SMILES IDX 38 57 39 59 40 60 41 61 42 62
REMARK H PARENT 50 49 36 58
REMARK Flexibility Score:  160.900
ROOT
ATOM      1  C   UNL     1     -16.180 -30.436   3.461  1.00  0.00     0.102 C 
ENDROOT
BRANCH   1   2
ATOM      2  C   UNL     1     -15.499 -29.531   2.483  1.00  0.00     0.096 A 
ATOM      3  C   UNL     1     -15.263 -28.063   0.847  1.00  0.00     0.081 A 
ATOM      4  C   UNL     1     -13.952 -28.244   1.132  1.00  0.00     0.095 A 
ATOM      5  N   UNL     1     -16.142 -28.860   1.572  1.00  0.00    -0.241 NA
ATOM      6  S   UNL     1     -13.791 -29.261   2.497  1.00  0.00    -0.127 S 
BRANCH   3   7
ATOM      7  C   UNL     1     -15.859 -27.129  -0.128  1.00  0.00     0.002 A 
ATOM      8  N   UNL     1     -17.670 -24.478  -2.713  1.00  0.00    -0.340 N 
ATOM      9  C   UNL     1     -16.914 -25.342  -1.946  1.00  0.00     0.049 A 
ATOM     10  C   UNL     1     -18.991 -24.556  -2.305  1.00  0.00     0.054 A 
ATOM     11  C   UNL     1     -17.768 -25.964  -1.017  1.00  0.00     0.004 A 
ATOM     12  C   UNL     1     -15.543 -25.581  -1.973  1.00  0.00     0.027 A 
ATOM     13  C   UNL     1     -19.086 -25.466  -1.254  1.00  0.00    -0.014 A 
ATOM     14  C   UNL     1     -17.224 -26.868  -0.096  1.00  0.00     0.021 A 
ATOM     15  C   UNL     1     -15.046 -26.484  -1.059  1.00  0.00     0.012 A 
BRANCH   8  16
ATOM     16  C   UNL     1     -17.114 -23.698  -3.816  1.00  0.00     0.119 C 
ATOM     17  C   UNL     1     -17.340 -24.415  -5.117  1.00  0.00     0.027 C 
ENDBRANCH   8  16
BRANCH  10  18
ATOM     18  C   UNL     1     -20.094 -23.841  -2.954  1.00  0.00     0.025 A 
ATOM     19  C   UNL     1     -20.459 -22.518  -2.613  1.00  0.00     0.078 A 
ATOM     20  C   UNL     1     -20.819 -24.504  -3.940  1.00  0.00     0.039 A 
ATOM     21  N   UNL     1     -21.483 -21.907  -3.223  1.00  0.00    -0.256 NA
ATOM     22  C   UNL     1     -21.886 -23.862  -4.549  1.00  0.00     0.056 A 
ATOM     23  C   UNL     1     -22.177 -22.561  -4.171  1.00  0.00     0.137 A 
BRANCH  19  24
ATOM     24  C   UNL     1     -19.743 -21.708  -1.545  1.00  0.00     0.164 C 
ATOM     25  C   UNL     1     -20.751 -20.865  -0.794  1.00  0.00     0.045 C 
BRANCH  24  26
ATOM     26  O   UNL     1     -18.827 -20.833  -2.204  1.00  0.00    -0.375 OA
ATOM     27  C   UNL     1     -17.547 -20.784  -1.592  1.00  0.00     0.195 C 
ENDBRANCH  24  26
ENDBRANCH  19  24
BRANCH  22  28
ATOM     28  N   UNL     1     -22.611 -24.489  -5.547  1.00  0.00    -0.368 N 
ATOM     29  C   UNL     1     -23.681 -23.800  -6.285  1.00  0.00     0.132 C 
ATOM     30  C   UNL     1     -22.228 -25.816  -6.041  1.00  0.00     0.132 C 
ATOM     31  C   UNL     1     -24.771 -24.736  -6.759  1.00  0.00     0.105 C 
ATOM     32  C   UNL     1     -23.408 -26.640  -6.501  1.00  0.00     0.105 C 
ATOM     33  N   UNL     1     -24.207 -25.885  -7.461  1.00  0.00    -0.303 NA
ATOM     34  C   UNL     1     -25.263 -26.730  -8.022  1.00  0.00     0.105 C 
ENDBRANCH  22  28
ENDBRANCH  10  18
BRANCH  13  35
ATOM     35  C   UNL     1     -20.333 -25.882  -0.525  1.00  0.00     0.048 C 
BRANCH  35  36
ATOM     36  C   UNL     1     -20.671 -25.051   0.722  1.00  0.00     0.003 CG0
ATOM     37  C   UNL     1     -21.886 -24.193   0.366  1.00  0.00     0.015 C 
ATOM     38  C   UNL     1     -19.511 -24.124   1.098  1.00  0.00     0.015 C 
ATOM     39  G   UNL     1     -21.001 -25.949   1.910  1.00  0.00     0.000 G0
ENDBRANCH  35  36
ENDBRANCH  13  35
ENDBRANCH   3   7
ENDBRANCH   1   2
BRANCH   1  40
ATOM     40  C   UNL     1     -16.995 -31.520   2.737  1.00  0.00     0.179 C 
BRANCH  40  41
ATOM     41  C   UNL     1     -18.427 -31.041   2.570  1.00  0.00     0.259 C 
ATOM     42  O   UNL     1     -19.057 -31.222   1.535  1.00  0.00    -0.271 OA
BRANCH  41  43
ATOM     43  N   UNL     1     -18.985 -30.333   3.603  1.00  0.00    -0.275 N 
ATOM     44  C   UNL     1     -19.838 -30.928   4.644  1.00  0.00     0.140 C 
ATOM     45  N   UNL     1     -18.773 -28.937   3.680  1.00  0.00    -0.218 NA
ATOM     46  C   UNL     1     -21.214 -30.309   4.496  1.00  0.00     0.025 C 
ATOM     47  C   UNL     1     -20.067 -28.243   3.578  1.00  0.00     0.184 C 
ATOM     48  C   UNL     1     -21.085 -28.792   4.591  1.00  0.00     0.035 C 
ATOM     49  H   UNL     1     -18.328 -28.705   4.580  1.00  0.00     0.149 HD
BRANCH  47  50
ATOM     50  C   UNL     1     -19.847 -26.768   3.805  1.00  0.00     0.324 C 
ATOM     51  O   UNL     1     -19.781 -26.249   4.894  1.00  0.00    -0.250 OA
BRANCH  50  52
ATOM     52  O   UNL     1     -19.746 -26.100   2.651  1.00  0.00    -0.464 OA
BRANCH  52  53
ATOM     53  C   UNL     1     -20.995 -25.955   1.915  1.00  0.00     0.239 CG0
ATOM     54  G   UNL     1     -20.677 -25.046   0.732  1.00  0.00     0.000 G0
ENDBRANCH  52  53
ENDBRANCH  50  52
ENDBRANCH  47  50
ENDBRANCH  41  43
ENDBRANCH  40  41
BRANCH  40  55
ATOM     55  N   UNL     1     -16.385 -31.911   1.478  1.00  0.00    -0.344 N 
ATOM     56  C   UNL     1     -15.691 -33.054   1.357  1.00  0.00     0.224 C 
ATOM     57  O   UNL     1     -15.298 -33.696   2.327  1.00  0.00    -0.275 OA
ATOM     58  H   UNL     1     -16.488 -31.296   0.658  1.00  0.00     0.164 HD
BRANCH  56  59
ATOM     59  C   UNL     1     -15.500 -33.557  -0.018  1.00  0.00     0.081 C 
ATOM     60  C   UNL     1     -16.663 -34.270  -0.650  1.00  0.00     0.018 C 
ATOM     61  C   UNL     1     -16.309 -32.913  -1.136  1.00  0.00    -0.001 C 
ATOM     62  C   UNL     1     -15.714 -32.712  -2.513  1.00  0.00     0.008 C 
ENDBRANCH  56  59
ENDBRANCH  40  55
ENDBRANCH   1  40
TORSDOF 7
ENDMDL
MODEL 18
REMARK VINA RESULT:    -4.540      6.444     12.210
REMARK INTER + INTRA:         -13.771
REMARK INTER:                  -9.510
REMARK INTRA:                  -4.262
REMARK UNBOUND:                -4.720
REMARK SMILES CCn1c(-c2cc(N3CCN(C)CC3)cnc2[C@H](C)OC)c2c3cc(ccc31)-c1csc(n1)C[C@H](NC(=O)[C@H]1C[C@@H]1C)C(=O)N1CCC[C@H](N1)C(=O)OCC(C)(C)C2
REMARK SMILES IDX 34 1 32 2 29 3 30 4 33 5 31 6 25 7 3 8 28 9 4 10 23 11 27 12
REMARK SMILES IDX 22 13 24 14 26 15 2 16 1 17 5 18 17 19 6 20 16 21 7 22 15 23
REMARK SMILES IDX 18 24 19 25 20 26 21 27 8 28 14 29 9 30 13 31 10 32 11 33
REMARK SMILES IDX 12 34 58 35 55 36 56 37 57 38 35 40 43 41 44 42 45 43 46 44
REMARK SMILES IDX 50 45 47 46 49 47 48 48 51 50 52 51 53 52 54 53 36 55 37 56
REMARK SMILES IDX 38 57 39 59 40 60 41 61 42 62
REMARK H PARENT 50 49 36 58
REMARK Flexibility Score:  160.900
ROOT
ATOM      1  C   UNL     1     -17.522 -29.467   0.373  1.00  0.00     0.102 C 
ENDROOT
BRANCH   1   2
ATOM      2  C   UNL     1     -18.992 -29.207   0.483  1.00  0.00     0.096 A 
ATOM      3  C   UNL     1     -21.031 -28.594  -0.114  1.00  0.00     0.081 A 
ATOM      4  C   UNL     1     -21.309 -28.972   1.157  1.00  0.00     0.095 A 
ATOM      5  N   UNL     1     -19.688 -28.658  -0.470  1.00  0.00    -0.241 NA
ATOM      6  S   UNL     1     -19.915 -29.650   1.877  1.00  0.00    -0.127 S 
BRANCH   3   7
ATOM      7  C   UNL     1     -21.974 -28.130  -1.150  1.00  0.00     0.002 A 
ATOM      8  N   UNL     1     -24.448 -26.749  -4.143  1.00  0.00    -0.340 N 
ATOM      9  C   UNL     1     -23.749 -27.333  -3.104  1.00  0.00     0.049 A 
ATOM     10  C   UNL     1     -23.770 -25.616  -4.559  1.00  0.00     0.054 A 
ATOM     11  C   UNL     1     -22.591 -26.568  -2.872  1.00  0.00     0.004 A 
ATOM     12  C   UNL     1     -24.028 -28.496  -2.394  1.00  0.00     0.027 A 
ATOM     13  C   UNL     1     -22.613 -25.476  -3.794  1.00  0.00    -0.014 A 
ATOM     14  C   UNL     1     -21.694 -26.980  -1.880  1.00  0.00     0.021 A 
ATOM     15  C   UNL     1     -23.128 -28.865  -1.419  1.00  0.00     0.012 A 
BRANCH   8  16
ATOM     16  C   UNL     1     -25.734 -27.254  -4.620  1.00  0.00     0.119 C 
ATOM     17  C   UNL     1     -25.518 -28.429  -5.529  1.00  0.00     0.027 C 
ENDBRANCH   8  16
BRANCH  10  18
ATOM     18  C   UNL     1     -24.264 -24.695  -5.587  1.00  0.00     0.025 A 
ATOM     19  C   UNL     1     -25.063 -23.568  -5.290  1.00  0.00     0.078 A 
ATOM     20  C   UNL     1     -23.939 -24.957  -6.916  1.00  0.00     0.039 A 
ATOM     21  N   UNL     1     -25.504 -22.759  -6.263  1.00  0.00    -0.256 NA
ATOM     22  C   UNL     1     -24.417 -24.119  -7.911  1.00  0.00     0.056 A 
ATOM     23  C   UNL     1     -25.185 -23.026  -7.542  1.00  0.00     0.137 A 
BRANCH  19  24
ATOM     24  C   UNL     1     -25.485 -23.198  -3.878  1.00  0.00     0.164 C 
ATOM     25  C   UNL     1     -26.834 -22.514  -3.919  1.00  0.00     0.045 C 
BRANCH  24  26
ATOM     26  O   UNL     1     -24.527 -22.271  -3.366  1.00  0.00    -0.375 OA
ATOM     27  C   UNL     1     -24.879 -20.913  -3.577  1.00  0.00     0.195 C 
ENDBRANCH  24  26
ENDBRANCH  19  24
BRANCH  22  28
ATOM     28  N   UNL     1     -24.093 -24.341  -9.238  1.00  0.00    -0.368 N 
ATOM     29  C   UNL     1     -23.067 -25.317  -9.638  1.00  0.00     0.132 C 
ATOM     30  C   UNL     1     -24.883 -23.745 -10.320  1.00  0.00     0.132 C 
ATOM     31  C   UNL     1     -22.363 -24.942 -10.923  1.00  0.00     0.105 C 
ATOM     32  C   UNL     1     -24.064 -23.438 -11.552  1.00  0.00     0.105 C 
ATOM     33  N   UNL     1     -23.325 -24.622 -11.974  1.00  0.00    -0.303 NA
ATOM     34  C   UNL     1     -22.649 -24.374 -13.249  1.00  0.00     0.105 C 
ENDBRANCH  22  28
ENDBRANCH  10  18
BRANCH  13  35
ATOM     35  C   UNL     1     -21.596 -24.374  -3.884  1.00  0.00     0.048 C 
BRANCH  35  36
ATOM     36  C   UNL     1     -20.562 -24.527  -5.010  1.00  0.00     0.003 CG0
ATOM     37  C   UNL     1     -20.906 -23.481  -6.071  1.00  0.00     0.015 C 
ATOM     38  C   UNL     1     -20.643 -25.916  -5.649  1.00  0.00     0.015 C 
ATOM     39  G   UNL     1     -19.145 -24.294  -4.494  1.00  0.00     0.000 G0
ENDBRANCH  35  36
ENDBRANCH  13  35
ENDBRANCH   3   7
ENDBRANCH   1   2
BRANCH   1  40
ATOM     40  C   UNL     1     -16.755 -28.175   0.053  1.00  0.00     0.179 C 
BRANCH  40  41
ATOM     41  C   UNL     1     -16.889 -27.211   1.220  1.00  0.00     0.259 C 
ATOM     42  O   UNL     1     -16.633 -27.544   2.371  1.00  0.00    -0.271 OA
BRANCH  41  43
ATOM     43  N   UNL     1     -17.372 -25.956   0.956  1.00  0.00    -0.275 N 
ATOM     44  C   UNL     1     -18.086 -25.124   1.938  1.00  0.00     0.140 C 
ATOM     45  N   UNL     1     -17.218 -25.413  -0.341  1.00  0.00    -0.218 NA
ATOM     46  C   UNL     1     -19.497 -24.937   1.417  1.00  0.00     0.025 C 
ATOM     47  C   UNL     1     -18.547 -25.163  -0.923  1.00  0.00     0.184 C 
ATOM     48  C   UNL     1     -19.430 -24.329   0.020  1.00  0.00     0.035 C 
ATOM     49  H   UNL     1     -16.696 -24.527  -0.284  1.00  0.00     0.149 HD
BRANCH  47  50
ATOM     50  C   UNL     1     -18.375 -24.453  -2.242  1.00  0.00     0.324 C 
ATOM     51  O   UNL     1     -17.694 -23.468  -2.402  1.00  0.00    -0.250 OA
BRANCH  50  52
ATOM     52  O   UNL     1     -19.079 -25.042  -3.216  1.00  0.00    -0.464 OA
BRANCH  52  53
ATOM     53  C   UNL     1     -19.145 -24.291  -4.463  1.00  0.00     0.239 CG0
ATOM     54  G   UNL     1     -20.548 -24.523  -5.013  1.00  0.00     0.000 G0
ENDBRANCH  52  53
ENDBRANCH  50  52
ENDBRANCH  47  50
ENDBRANCH  41  43
ENDBRANCH  40  41
BRANCH  40  55
ATOM     55  N   UNL     1     -15.371 -28.435  -0.303  1.00  0.00    -0.344 N 
ATOM     56  C   UNL     1     -14.700 -27.638  -1.149  1.00  0.00     0.224 C 
ATOM     57  O   UNL     1     -15.260 -26.820  -1.873  1.00  0.00    -0.275 OA
ATOM     58  H   UNL     1     -14.894 -29.252   0.104  1.00  0.00     0.164 HD
BRANCH  56  59
ATOM     59  C   UNL     1     -13.227 -27.729  -1.099  1.00  0.00     0.081 C 
ATOM     60  C   UNL     1     -12.454 -26.705  -1.882  1.00  0.00     0.018 C 
ATOM     61  C   UNL     1     -12.463 -26.613  -0.401  1.00  0.00    -0.001 C 
ATOM     62  C   UNL     1     -11.215 -26.906   0.403  1.00  0.00     0.008 C 
ENDBRANCH  56  59
ENDBRANCH  40  55
ENDBRANCH   1  40
TORSDOF 7
ENDMDL
MODEL 19
REMARK VINA RESULT:    -4.403      3.907      7.444
REMARK INTER + INTRA:         -13.498
REMARK INTER:                 -10.855
REMARK INTRA:                  -2.642
REMARK UNBOUND:                -4.720
REMARK SMILES CCn1c(-c2cc(N3CCN(C)CC3)cnc2[C@H](C)OC)c2c3cc(ccc31)-c1csc(n1)C[C@H](NC(=O)[C@H]1C[C@@H]1C)C(=O)N1CCC[C@H](N1)C(=O)OCC(C)(C)C2
REMARK SMILES IDX 34 1 32 2 29 3 30 4 33 5 31 6 25 7 3 8 28 9 4 10 23 11 27 12
REMARK SMILES IDX 22 13 24 14 26 15 2 16 1 17 5 18 17 19 6 20 16 21 7 22 15 23
REMARK SMILES IDX 18 24 19 25 20 26 21 27 8 28 14 29 9 30 13 31 10 32 11 33
REMARK SMILES IDX 12 34 58 35 55 36 56 37 57 38 35 40 43 41 44 42 45 43 46 44
REMARK SMILES IDX 50 45 47 46 49 47 48 48 51 50 52 51 53 52 54 53 36 55 37 56
REMARK SMILES IDX 38 57 39 59 40 60 41 61 42 62
REMARK H PARENT 50 49 36 58
REMARK Flexibility Score:  160.900
ROOT
ATOM      1  C   UNL     1     -16.563 -28.238   3.274  1.00  0.00     0.102 C 
ENDROOT
BRANCH   1   2
ATOM      2  C   UNL     1     -16.093 -29.517   2.655  1.00  0.00     0.096 A 
ATOM      3  C   UNL     1     -16.195 -31.520   1.726  1.00  0.00     0.081 A 
ATOM      4  C   UNL     1     -14.849 -31.376   1.722  1.00  0.00     0.095 A 
ATOM      5  N   UNL     1     -16.900 -30.486   2.332  1.00  0.00    -0.241 NA
ATOM      6  S   UNL     1     -14.433 -29.812   2.273  1.00  0.00    -0.127 S 
BRANCH   3   7
ATOM      7  C   UNL     1     -16.990 -32.631   1.169  1.00  0.00     0.002 A 
ATOM      8  N   UNL     1     -19.366 -35.602  -0.420  1.00  0.00    -0.340 N 
ATOM      9  C   UNL     1     -18.429 -34.714   0.072  1.00  0.00     0.049 A 
ATOM     10  C   UNL     1     -20.632 -35.140  -0.103  1.00  0.00     0.054 A 
ATOM     11  C   UNL     1     -19.116 -33.655   0.694  1.00  0.00     0.004 A 
ATOM     12  C   UNL     1     -17.042 -34.744  -0.030  1.00  0.00     0.027 A 
ATOM     13  C   UNL     1     -20.512 -33.934   0.586  1.00  0.00    -0.014 A 
ATOM     14  C   UNL     1     -18.378 -32.601   1.246  1.00  0.00     0.021 A 
ATOM     15  C   UNL     1     -16.350 -33.695   0.534  1.00  0.00     0.012 A 
BRANCH   8  16
ATOM     16  C   UNL     1     -19.005 -36.851  -1.087  1.00  0.00     0.119 C 
ATOM     17  C   UNL     1     -19.089 -36.680  -2.577  1.00  0.00     0.027 C 
ENDBRANCH   8  16
BRANCH  10  18
ATOM     18  C   UNL     1     -21.868 -35.873  -0.392  1.00  0.00     0.025 A 
ATOM     19  C   UNL     1     -22.464 -36.769   0.526  1.00  0.00     0.078 A 
ATOM     20  C   UNL     1     -22.471 -35.683  -1.633  1.00  0.00     0.039 A 
ATOM     21  N   UNL     1     -23.588 -37.427   0.215  1.00  0.00    -0.256 NA
ATOM     22  C   UNL     1     -23.625 -36.385  -1.943  1.00  0.00     0.056 A 
ATOM     23  C   UNL     1     -24.157 -37.237  -0.988  1.00  0.00     0.137 A 
BRANCH  19  24
ATOM     24  C   UNL     1     -21.883 -37.057   1.900  1.00  0.00     0.164 C 
ATOM     25  C   UNL     1     -20.959 -38.252   1.814  1.00  0.00     0.045 C 
BRANCH  24  26
ATOM     26  O   UNL     1     -22.966 -37.388   2.769  1.00  0.00    -0.375 OA
ATOM     27  C   UNL     1     -22.840 -38.664   3.377  1.00  0.00     0.195 C 
ENDBRANCH  24  26
ENDBRANCH  19  24
BRANCH  22  28
ATOM     28  N   UNL     1     -24.258 -36.201  -3.160  1.00  0.00    -0.368 N 
ATOM     29  C   UNL     1     -23.557 -36.385  -4.441  1.00  0.00     0.132 C 
ATOM     30  C   UNL     1     -25.707 -35.988  -3.235  1.00  0.00     0.132 C 
ATOM     31  C   UNL     1     -24.102 -35.506  -5.545  1.00  0.00     0.105 C 
ATOM     32  C   UNL     1     -26.118 -35.110  -4.393  1.00  0.00     0.105 C 
ATOM     33  N   UNL     1     -25.554 -35.620  -5.638  1.00  0.00    -0.303 NA
ATOM     34  C   UNL     1     -26.070 -34.863  -6.780  1.00  0.00     0.105 C 
ENDBRANCH  22  28
ENDBRANCH  10  18
BRANCH  13  35
ATOM     35  C   UNL     1     -21.628 -33.097   1.145  1.00  0.00     0.048 C 
BRANCH  35  36
ATOM     36  C   UNL     1     -21.860 -33.241   2.657  1.00  0.00     0.003 CG0
ATOM     37  C   UNL     1     -20.834 -34.253   3.168  1.00  0.00     0.015 C 
ATOM     38  C   UNL     1     -23.265 -33.778   2.951  1.00  0.00     0.015 C 
ATOM     39  G   UNL     1     -21.673 -31.907   3.373  1.00  0.00     0.000 G0
ENDBRANCH  35  36
ENDBRANCH  13  35
ENDBRANCH   3   7
ENDBRANCH   1   2
BRANCH   1  40
ATOM     40  C   UNL     1     -18.045 -27.982   2.958  1.00  0.00     0.179 C 
BRANCH  40  41
ATOM     41  C   UNL     1     -18.656 -27.146   4.069  1.00  0.00     0.259 C 
ATOM     42  O   UNL     1     -17.991 -26.360   4.733  1.00  0.00    -0.271 OA
BRANCH  41  43
ATOM     43  N   UNL     1     -19.981 -27.342   4.358  1.00  0.00    -0.275 N 
ATOM     44  C   UNL     1     -20.597 -27.035   5.659  1.00  0.00     0.140 C 
ATOM     45  N   UNL     1     -20.828 -27.905   3.375  1.00  0.00    -0.218 NA
ATOM     46  C   UNL     1     -21.069 -28.349   6.248  1.00  0.00     0.025 C 
ATOM     47  C   UNL     1     -21.367 -29.181   3.871  1.00  0.00     0.184 C 
ATOM     48  C   UNL     1     -22.014 -29.022   5.257  1.00  0.00     0.035 C 
ATOM     49  H   UNL     1     -21.604 -27.257   3.177  1.00  0.00     0.149 HD
BRANCH  47  50
ATOM     50  C   UNL     1     -22.378 -29.701   2.880  1.00  0.00     0.324 C 
ATOM     51  O   UNL     1     -23.400 -29.127   2.583  1.00  0.00    -0.250 OA
BRANCH  50  52
ATOM     52  O   UNL     1     -22.011 -30.884   2.374  1.00  0.00    -0.464 OA
BRANCH  52  53
ATOM     53  C   UNL     1     -21.672 -31.895   3.367  1.00  0.00     0.239 CG0
ATOM     54  G   UNL     1     -21.846 -33.239   2.666  1.00  0.00     0.000 G0
ENDBRANCH  52  53
ENDBRANCH  50  52
ENDBRANCH  47  50
ENDBRANCH  41  43
ENDBRANCH  40  41
BRANCH  40  55
ATOM     55  N   UNL     1     -18.228 -27.388   1.645  1.00  0.00    -0.344 N 
ATOM     56  C   UNL     1     -17.332 -26.532   1.128  1.00  0.00     0.224 C 
ATOM     57  O   UNL     1     -16.465 -25.991   1.808  1.00  0.00    -0.275 OA
ATOM     58  H   UNL     1     -19.065 -27.631   1.097  1.00  0.00     0.164 HD
BRANCH  56  59
ATOM     59  C   UNL     1     -17.384 -26.341  -0.335  1.00  0.00     0.081 C 
ATOM     60  C   UNL     1     -18.564 -25.586  -0.882  1.00  0.00     0.018 C 
ATOM     61  C   UNL     1     -17.235 -24.926  -0.878  1.00  0.00    -0.001 C 
ATOM     62  C   UNL     1     -16.495 -24.662  -2.172  1.00  0.00     0.008 C 
ENDBRANCH  56  59
ENDBRANCH  40  55
ENDBRANCH   1  40
TORSDOF 7
ENDMDL
MODEL 20
REMARK VINA RESULT:    -4.344      3.988      7.271
REMARK INTER + INTRA:         -13.380
REMARK INTER:                  -8.930
REMARK INTRA:                  -4.451
REMARK UNBOUND:                -4.720
REMARK SMILES CCn1c(-c2cc(N3CCN(C)CC3)cnc2[C@H](C)OC)c2c3cc(ccc31)-c1csc(n1)C[C@H](NC(=O)[C@H]1C[C@@H]1C)C(=O)N1CCC[C@H](N1)C(=O)OCC(C)(C)C2
REMARK SMILES IDX 34 1 32 2 29 3 30 4 33 5 31 6 25 7 3 8 28 9 4 10 23 11 27 12
REMARK SMILES IDX 22 13 24 14 26 15 2 16 1 17 5 18 17 19 6 20 16 21 7 22 15 23
REMARK SMILES IDX 18 24 19 25 20 26 21 27 8 28 14 29 9 30 13 31 10 32 11 33
REMARK SMILES IDX 12 34 58 35 55 36 56 37 57 38 35 40 43 41 44 42 45 43 46 44
REMARK SMILES IDX 50 45 47 46 49 47 48 48 51 50 52 51 53 52 54 53 36 55 37 56
REMARK SMILES IDX 38 57 39 59 40 60 41 61 42 62
REMARK H PARENT 50 49 36 58
REMARK Flexibility Score:  160.900
ROOT
ATOM      1  C   UNL     1     -15.992 -27.039  -0.338  1.00  0.00     0.102 C 
ENDROOT
BRANCH   1   2
ATOM      2  C   UNL     1     -15.831 -28.348   0.370  1.00  0.00     0.096 A 
ATOM      3  C   UNL     1     -16.250 -30.432   0.979  1.00  0.00     0.081 A 
ATOM      4  C   UNL     1     -15.142 -30.231   1.731  1.00  0.00     0.095 A 
ATOM      5  N   UNL     1     -16.685 -29.324   0.259  1.00  0.00    -0.241 NA
ATOM      6  S   UNL     1     -14.468 -28.701   1.375  1.00  0.00    -0.127 S 
BRANCH   3   7
ATOM      7  C   UNL     1     -17.037 -31.671   0.835  1.00  0.00     0.002 A 
ATOM      8  N   UNL     1     -19.407 -35.025   0.471  1.00  0.00    -0.340 N 
ATOM      9  C   UNL     1     -18.491 -33.991   0.494  1.00  0.00     0.049 A 
ATOM     10  C   UNL     1     -20.452 -34.716   1.325  1.00  0.00     0.054 A 
ATOM     11  C   UNL     1     -18.976 -32.995   1.361  1.00  0.00     0.004 A 
ATOM     12  C   UNL     1     -17.306 -33.843  -0.220  1.00  0.00     0.027 A 
ATOM     13  C   UNL     1     -20.218 -33.464   1.890  1.00  0.00    -0.014 A 
ATOM     14  C   UNL     1     -18.234 -31.820   1.527  1.00  0.00     0.021 A 
ATOM     15  C   UNL     1     -16.597 -32.679  -0.023  1.00  0.00     0.012 A 
BRANCH   8  16
ATOM     16  C   UNL     1     -19.201 -36.254  -0.291  1.00  0.00     0.119 C 
ATOM     17  C   UNL     1     -18.433 -37.247   0.534  1.00  0.00     0.027 C 
ENDBRANCH   8  16
BRANCH  10  18
ATOM     18  C   UNL     1     -21.566 -35.622   1.619  1.00  0.00     0.025 A 
ATOM     19  C   UNL     1     -21.613 -36.432   2.777  1.00  0.00     0.078 A 
ATOM     20  C   UNL     1     -22.616 -35.694   0.707  1.00  0.00     0.039 A 
ATOM     21  N   UNL     1     -22.645 -37.257   3.000  1.00  0.00    -0.256 NA
ATOM     22  C   UNL     1     -23.667 -36.564   0.946  1.00  0.00     0.056 A 
ATOM     23  C   UNL     1     -23.650 -37.318   2.109  1.00  0.00     0.137 A 
BRANCH  19  24
ATOM     24  C   UNL     1     -20.517 -36.440   3.830  1.00  0.00     0.164 C 
ATOM     25  C   UNL     1     -19.823 -37.785   3.822  1.00  0.00     0.045 C 
BRANCH  24  26
ATOM     26  O   UNL     1     -21.135 -36.260   5.104  1.00  0.00    -0.375 OA
ATOM     27  C   UNL     1     -20.642 -37.136   6.106  1.00  0.00     0.195 C 
ENDBRANCH  24  26
ENDBRANCH  19  24
BRANCH  22  28
ATOM     28  N   UNL     1     -24.734 -36.641   0.068  1.00  0.00    -0.368 N 
ATOM     29  C   UNL     1     -26.041 -37.181   0.473  1.00  0.00     0.132 C 
ATOM     30  C   UNL     1     -24.668 -36.022  -1.260  1.00  0.00     0.132 C 
ATOM     31  C   UNL     1     -26.790 -37.835  -0.667  1.00  0.00     0.105 C 
ATOM     32  C   UNL     1     -25.475 -36.763  -2.300  1.00  0.00     0.105 C 
ATOM     33  N   UNL     1     -26.842 -36.957  -1.832  1.00  0.00    -0.303 NA
ATOM     34  C   UNL     1     -27.666 -37.539  -2.893  1.00  0.00     0.105 C 
ENDBRANCH  22  28
ENDBRANCH  10  18
BRANCH  13  35
ATOM     35  C   UNL     1     -21.078 -32.748   2.894  1.00  0.00     0.048 C 
BRANCH  35  36
ATOM     36  C   UNL     1     -22.268 -31.975   2.306  1.00  0.00     0.003 CG0
ATOM     37  C   UNL     1     -23.536 -32.630   2.855  1.00  0.00     0.015 C 
ATOM     38  C   UNL     1     -22.289 -32.075   0.777  1.00  0.00     0.015 C 
ATOM     39  G   UNL     1     -22.226 -30.505   2.712  1.00  0.00     0.000 G0
ENDBRANCH  35  36
ENDBRANCH  13  35
ENDBRANCH   3   7
ENDBRANCH   1   2
BRANCH   1  40
ATOM     40  C   UNL     1     -17.412 -26.482  -0.152  1.00  0.00     0.179 C 
BRANCH  40  41
ATOM     41  C   UNL     1     -17.494 -25.761   1.183  1.00  0.00     0.259 C 
ATOM     42  O   UNL     1     -16.908 -24.705   1.390  1.00  0.00    -0.271 OA
BRANCH  41  43
ATOM     43  N   UNL     1     -18.203 -26.364   2.189  1.00  0.00    -0.275 N 
ATOM     44  C   UNL     1     -17.642 -26.701   3.507  1.00  0.00     0.140 C 
ATOM     45  N   UNL     1     -19.552 -26.727   1.965  1.00  0.00    -0.218 NA
ATOM     46  C   UNL     1     -17.671 -28.212   3.628  1.00  0.00     0.025 C 
ATOM     47  C   UNL     1     -19.690 -28.187   2.094  1.00  0.00     0.184 C 
ATOM     48  C   UNL     1     -19.103 -28.695   3.421  1.00  0.00     0.035 C 
ATOM     49  H   UNL     1     -20.154 -26.262   2.659  1.00  0.00     0.149 HD
BRANCH  47  50
ATOM     50  C   UNL     1     -21.151 -28.548   1.997  1.00  0.00     0.324 C 
ATOM     51  O   UNL     1     -22.057 -27.756   2.101  1.00  0.00    -0.250 OA
BRANCH  50  52
ATOM     52  O   UNL     1     -21.323 -29.859   1.792  1.00  0.00    -0.464 OA
BRANCH  52  53
ATOM     53  C   UNL     1     -22.233 -30.510   2.726  1.00  0.00     0.239 CG0
ATOM     54  G   UNL     1     -22.270 -31.978   2.314  1.00  0.00     0.000 G0
ENDBRANCH  52  53
ENDBRANCH  50  52
ENDBRANCH  47  50
ENDBRANCH  41  43
ENDBRANCH  40  41
BRANCH  40  55
ATOM     55  N   UNL     1     -17.820 -25.645  -1.266  1.00  0.00    -0.344 N 
ATOM     56  C   UNL     1     -19.115 -25.448  -1.561  1.00  0.00     0.224 C 
ATOM     57  O   UNL     1     -20.012 -26.151  -1.105  1.00  0.00    -0.275 OA
ATOM     58  H   UNL     1     -17.099 -25.191  -1.844  1.00  0.00     0.164 HD
BRANCH  56  59
ATOM     59  C   UNL     1     -19.421 -24.273  -2.401  1.00  0.00     0.081 C 
ATOM     60  C   UNL     1     -20.614 -24.376  -3.309  1.00  0.00     0.018 C 
ATOM     61  C   UNL     1     -20.701 -23.500  -2.114  1.00  0.00    -0.001 C 
ATOM     62  C   UNL     1     -20.752 -21.994  -2.257  1.00  0.00     0.008 C 
ENDBRANCH  56  59
ENDBRANCH  40  55
ENDBRANCH   1  40
TORSDOF 7
ENDMDL
