MODEL 1
REMARK VINA RESULT:   -10.593      0.000      0.000
REMARK INTER + INTRA:         -24.479
REMARK INTER:                 -21.121
REMARK INTRA:                  -3.358
REMARK UNBOUND:                -3.358
REMARK SMILES CCn1c(-c2cc(N3CCN(C)CC3)cnc2[C@H](C)OC)c2c3cc(ccc31)-c1csc(n1)C[C@H](NC(=O)[C@H]1C[C@@H]1C)C(=O)N1CCC[C@H](N1)C(=O)OCC(C)(C)C2
REMARK SMILES IDX 34 1 32 2 29 3 30 4 33 5 31 6 25 7 3 8 28 9 4 10 23 11 27 12
REMARK SMILES IDX 22 13 24 14 26 15 2 16 1 17 5 18 17 19 6 20 16 21 7 22 15 23
REMARK SMILES IDX 18 24 19 25 20 26 21 27 8 28 14 29 9 30 13 31 10 32 11 33
REMARK SMILES IDX 12 34 58 35 55 36 56 37 57 38 35 40 43 41 44 42 45 43 46 44
REMARK SMILES IDX 50 45 47 46 49 47 48 48 51 50 52 51 53 52 54 53 36 55 37 56
REMARK SMILES IDX 38 57 39 59 40 60 41 61 42 62
REMARK H PARENT 50 49 36 58
REMARK Flexibility Score:  160.900
ROOT
ATOM      1  C   UNL     1      27.060  26.113   8.613  1.00  0.00     0.102 C 
ENDROOT
BRANCH   1   2
ATOM      2  C   UNL     1      26.579  24.953   9.429  1.00  0.00     0.096 A 
ATOM      3  C   UNL     1      26.431  23.542  11.124  1.00  0.00     0.081 A 
ATOM      4  C   UNL     1      25.474  22.997  10.336  1.00  0.00     0.095 A 
ATOM      5  N   UNL     1      27.115  24.617  10.566  1.00  0.00    -0.241 NA
ATOM      6  S   UNL     1      25.238  23.972   8.952  1.00  0.00    -0.127 S 
BRANCH   3   7
ATOM      7  C   UNL     1      26.826  23.135  12.486  1.00  0.00     0.002 A 
ATOM      8  N   UNL     1      27.867  22.183  16.359  1.00  0.00    -0.340 N 
ATOM      9  C   UNL     1      27.513  22.324  15.032  1.00  0.00     0.049 A 
ATOM     10  C   UNL     1      28.166  23.432  16.878  1.00  0.00     0.054 A 
ATOM     11  C   UNL     1      27.566  23.692  14.707  1.00  0.00     0.004 A 
ATOM     12  C   UNL     1      27.106  21.357  14.118  1.00  0.00     0.027 A 
ATOM     13  C   UNL     1      27.988  24.389  15.881  1.00  0.00    -0.014 A 
ATOM     14  C   UNL     1      27.214  24.096  13.414  1.00  0.00     0.021 A 
ATOM     15  C   UNL     1      26.777  21.791  12.852  1.00  0.00     0.012 A 
BRANCH   8  16
ATOM     16  C   UNL     1      27.967  20.886  17.023  1.00  0.00     0.119 C 
ATOM     17  C   UNL     1      26.595  20.347  17.308  1.00  0.00     0.027 C 
ENDBRANCH   8  16
BRANCH  10  18
ATOM     18  C   UNL     1      28.665  23.657  18.238  1.00  0.00     0.025 A 
ATOM     19  C   UNL     1      27.823  23.671  19.373  1.00  0.00     0.078 A 
ATOM     20  C   UNL     1      30.029  23.882  18.410  1.00  0.00     0.039 A 
ATOM     21  N   UNL     1      28.320  23.894  20.597  1.00  0.00    -0.256 NA
ATOM     22  C   UNL     1      30.523  24.127  19.681  1.00  0.00     0.056 A 
ATOM     23  C   UNL     1      29.639  24.113  20.748  1.00  0.00     0.137 A 
BRANCH  19  24
ATOM     24  C   UNL     1      26.322  23.450  19.297  1.00  0.00     0.164 C 
ATOM     25  C   UNL     1      25.609  24.610  19.956  1.00  0.00     0.045 C 
BRANCH  24  26
ATOM     26  O   UNL     1      26.019  22.262  20.028  1.00  0.00    -0.375 OA
ATOM     27  C   UNL     1      24.648  21.898  19.981  1.00  0.00     0.195 C 
ENDBRANCH  24  26
ENDBRANCH  19  24
BRANCH  22  28
ATOM     28  N   UNL     1      31.877  24.332  19.885  1.00  0.00    -0.368 N 
ATOM     29  C   UNL     1      32.402  24.875  21.147  1.00  0.00     0.132 C 
ATOM     30  C   UNL     1      32.869  23.848  18.920  1.00  0.00     0.132 C 
ATOM     31  C   UNL     1      33.677  25.669  20.964  1.00  0.00     0.105 C 
ATOM     32  C   UNL     1      34.101  24.720  18.850  1.00  0.00     0.105 C 
ATOM     33  N   UNL     1      34.656  24.917  20.185  1.00  0.00    -0.303 NA
ATOM     34  C   UNL     1      35.930  25.633  20.107  1.00  0.00     0.105 C 
ENDBRANCH  22  28
ENDBRANCH  10  18
BRANCH  13  35
ATOM     35  C   UNL     1      28.226  25.869  15.993  1.00  0.00     0.048 C 
BRANCH  35  36
ATOM     36  C   UNL     1      26.983  26.709  16.323  1.00  0.00     0.003 CG0
ATOM     37  C   UNL     1      27.195  27.279  17.726  1.00  0.00     0.015 C 
ATOM     38  C   UNL     1      25.719  25.845  16.332  1.00  0.00     0.015 C 
ATOM     39  G   UNL     1      26.805  27.847  15.323  1.00  0.00     0.000 G0
ENDBRANCH  35  36
ENDBRANCH  13  35
ENDBRANCH   3   7
ENDBRANCH   1   2
BRANCH   1  40
ATOM     40  C   UNL     1      25.927  27.121   8.365  1.00  0.00     0.179 C 
BRANCH  40  41
ATOM     41  C   UNL     1      26.471  28.532   8.511  1.00  0.00     0.259 C 
ATOM     42  O   UNL     1      27.035  29.111   7.590  1.00  0.00    -0.271 OA
BRANCH  41  43
ATOM     43  N   UNL     1      26.371  29.128   9.741  1.00  0.00    -0.275 N 
ATOM     44  C   UNL     1      26.852  30.486  10.042  1.00  0.00     0.140 C 
ATOM     45  N   UNL     1      25.804  28.406  10.817  1.00  0.00    -0.218 NA
ATOM     46  C   UNL     1      27.969  30.346  11.057  1.00  0.00     0.025 C 
ATOM     47  C   UNL     1      26.811  28.245  11.878  1.00  0.00     0.184 C 
ATOM     48  C   UNL     1      27.437  29.592  12.272  1.00  0.00     0.035 C 
ATOM     49  H   UNL     1      24.992  28.921  11.187  1.00  0.00     0.149 HD
BRANCH  47  50
ATOM     50  C   UNL     1      26.157  27.603  13.076  1.00  0.00     0.324 C 
ATOM     51  O   UNL     1      24.968  27.416  13.186  1.00  0.00    -0.250 OA
BRANCH  50  52
ATOM     52  O   UNL     1      27.055  27.273  14.011  1.00  0.00    -0.464 OA
BRANCH  52  53
ATOM     53  C   UNL     1      26.804  27.844  15.328  1.00  0.00     0.239 CG0
ATOM     54  G   UNL     1      26.967  26.693  16.317  1.00  0.00     0.000 G0
ENDBRANCH  52  53
ENDBRANCH  50  52
ENDBRANCH  47  50
ENDBRANCH  41  43
ENDBRANCH  40  41
BRANCH  40  55
ATOM     55  N   UNL     1      25.273  26.903   7.086  1.00  0.00    -0.344 N 
ATOM     56  C   UNL     1      24.008  27.296   6.866  1.00  0.00     0.224 C 
ATOM     57  O   UNL     1      23.244  27.606   7.776  1.00  0.00    -0.275 OA
ATOM     58  H   UNL     1      25.792  26.436   6.330  1.00  0.00     0.164 HD
BRANCH  56  59
ATOM     59  C   UNL     1      23.603  27.425   5.453  1.00  0.00     0.081 C 
ATOM     60  C   UNL     1      22.178  27.825   5.186  1.00  0.00     0.018 C 
ATOM     61  C   UNL     1      23.256  28.813   4.931  1.00  0.00    -0.001 C 
ATOM     62  C   UNL     1      23.612  29.227   3.519  1.00  0.00     0.008 C 
ENDBRANCH  56  59
ENDBRANCH  40  55
ENDBRANCH   1  40
TORSDOF 7
ENDMDL
MODEL 2
REMARK VINA RESULT:    -8.252      1.516      2.789
REMARK INTER + INTRA:         -19.810
REMARK INTER:                 -15.290
REMARK INTRA:                  -4.520
REMARK UNBOUND:                -3.358
REMARK SMILES CCn1c(-c2cc(N3CCN(C)CC3)cnc2[C@H](C)OC)c2c3cc(ccc31)-c1csc(n1)C[C@H](NC(=O)[C@H]1C[C@@H]1C)C(=O)N1CCC[C@H](N1)C(=O)OCC(C)(C)C2
REMARK SMILES IDX 34 1 32 2 29 3 30 4 33 5 31 6 25 7 3 8 28 9 4 10 23 11 27 12
REMARK SMILES IDX 22 13 24 14 26 15 2 16 1 17 5 18 17 19 6 20 16 21 7 22 15 23
REMARK SMILES IDX 18 24 19 25 20 26 21 27 8 28 14 29 9 30 13 31 10 32 11 33
REMARK SMILES IDX 12 34 58 35 55 36 56 37 57 38 35 40 43 41 44 42 45 43 46 44
REMARK SMILES IDX 50 45 47 46 49 47 48 48 51 50 52 51 53 52 54 53 36 55 37 56
REMARK SMILES IDX 38 57 39 59 40 60 41 61 42 62
REMARK H PARENT 50 49 36 58
REMARK Flexibility Score:  160.900
ROOT
ATOM      1  C   UNL     1      24.931  25.972   9.076  1.00  0.00     0.102 C 
ENDROOT
BRANCH   1   2
ATOM      2  C   UNL     1      25.384  24.673   9.667  1.00  0.00     0.096 A 
ATOM      3  C   UNL     1      26.121  23.238  11.178  1.00  0.00     0.081 A 
ATOM      4  C   UNL     1      26.023  22.382  10.133  1.00  0.00     0.095 A 
ATOM      5  N   UNL     1      25.827  24.565  10.886  1.00  0.00    -0.241 NA
ATOM      6  S   UNL     1      25.326  23.182   8.793  1.00  0.00    -0.127 S 
BRANCH   3   7
ATOM      7  C   UNL     1      26.495  22.930  12.572  1.00  0.00     0.002 A 
ATOM      8  N   UNL     1      27.516  22.268  16.510  1.00  0.00    -0.340 N 
ATOM      9  C   UNL     1      27.134  22.313  15.184  1.00  0.00     0.049 A 
ATOM     10  C   UNL     1      28.069  23.488  16.859  1.00  0.00     0.054 A 
ATOM     11  C   UNL     1      27.429  23.596  14.687  1.00  0.00     0.004 A 
ATOM     12  C   UNL     1      26.510  21.340  14.410  1.00  0.00     0.027 A 
ATOM     13  C   UNL     1      28.028  24.335  15.753  1.00  0.00    -0.014 A 
ATOM     14  C   UNL     1      27.099  23.902  13.362  1.00  0.00     0.021 A 
ATOM     15  C   UNL     1      26.211  21.674  13.107  1.00  0.00     0.012 A 
BRANCH   8  16
ATOM     16  C   UNL     1      27.401  21.065  17.331  1.00  0.00     0.119 C 
ATOM     17  C   UNL     1      28.622  20.207  17.160  1.00  0.00     0.027 C 
ENDBRANCH   8  16
BRANCH  10  18
ATOM     18  C   UNL     1      28.664  23.776  18.168  1.00  0.00     0.025 A 
ATOM     19  C   UNL     1      27.892  24.005  19.330  1.00  0.00     0.078 A 
ATOM     20  C   UNL     1      30.052  23.839  18.260  1.00  0.00     0.039 A 
ATOM     21  N   UNL     1      28.478  24.277  20.504  1.00  0.00    -0.256 NA
ATOM     22  C   UNL     1      30.641  24.138  19.479  1.00  0.00     0.056 A 
ATOM     23  C   UNL     1      29.819  24.338  20.578  1.00  0.00     0.137 A 
BRANCH  19  24
ATOM     24  C   UNL     1      26.373  23.972  19.338  1.00  0.00     0.164 C 
ATOM     25  C   UNL     1      25.851  25.090  20.214  1.00  0.00     0.045 C 
BRANCH  24  26
ATOM     26  O   UNL     1      25.968  22.727  19.908  1.00  0.00    -0.375 OA
ATOM     27  C   UNL     1      24.560  22.560  19.969  1.00  0.00     0.195 C 
ENDBRANCH  24  26
ENDBRANCH  19  24
BRANCH  22  28
ATOM     28  N   UNL     1      32.018  24.185  19.606  1.00  0.00    -0.368 N 
ATOM     29  C   UNL     1      32.677  24.304  20.915  1.00  0.00     0.132 C 
ATOM     30  C   UNL     1      32.893  23.939  18.454  1.00  0.00     0.132 C 
ATOM     31  C   UNL     1      34.002  25.031  20.847  1.00  0.00     0.105 C 
ATOM     32  C   UNL     1      34.189  24.711  18.521  1.00  0.00     0.105 C 
ATOM     33  N   UNL     1      34.852  24.475  19.798  1.00  0.00    -0.303 NA
ATOM     34  C   UNL     1      36.177  25.099  19.809  1.00  0.00     0.105 C 
ENDBRANCH  22  28
ENDBRANCH  10  18
BRANCH  13  35
ATOM     35  C   UNL     1      28.546  25.744  15.671  1.00  0.00     0.048 C 
BRANCH  35  36
ATOM     36  C   UNL     1      27.623  26.817  16.269  1.00  0.00     0.003 CG0
ATOM     37  C   UNL     1      28.255  27.256  17.591  1.00  0.00     0.015 C 
ATOM     38  C   UNL     1      26.231  26.248  16.559  1.00  0.00     0.015 C 
ATOM     39  G   UNL     1      27.492  28.015  15.334  1.00  0.00     0.000 G0
ENDBRANCH  35  36
ENDBRANCH  13  35
ENDBRANCH   3   7
ENDBRANCH   1   2
BRANCH   1  40
ATOM     40  C   UNL     1      26.129  26.827   8.635  1.00  0.00     0.179 C 
BRANCH  40  41
ATOM     41  C   UNL     1      25.731  28.293   8.654  1.00  0.00     0.259 C 
ATOM     42  O   UNL     1      25.247  28.849   7.676  1.00  0.00    -0.271 OA
BRANCH  41  43
ATOM     43  N   UNL     1      25.989  29.007   9.795  1.00  0.00    -0.275 N 
ATOM     44  C   UNL     1      26.657  30.318   9.815  1.00  0.00     0.140 C 
ATOM     45  N   UNL     1      25.633  28.460  11.050  1.00  0.00    -0.218 NA
ATOM     46  C   UNL     1      27.967  30.138  10.554  1.00  0.00     0.025 C 
ATOM     47  C   UNL     1      26.847  28.276  11.862  1.00  0.00     0.184 C 
ATOM     48  C   UNL     1      27.676  29.568  11.940  1.00  0.00     0.035 C 
ATOM     49  H   UNL     1      24.989  29.101  11.535  1.00  0.00     0.149 HD
BRANCH  47  50
ATOM     50  C   UNL     1      26.444  27.830  13.245  1.00  0.00     0.324 C 
ATOM     51  O   UNL     1      25.304  27.784  13.642  1.00  0.00    -0.250 OA
BRANCH  50  52
ATOM     52  O   UNL     1      27.508  27.501  13.987  1.00  0.00    -0.464 OA
BRANCH  52  53
ATOM     53  C   UNL     1      27.497  28.034  15.343  1.00  0.00     0.239 CG0
ATOM     54  G   UNL     1      27.622  26.825  16.265  1.00  0.00     0.000 G0
ENDBRANCH  52  53
ENDBRANCH  50  52
ENDBRANCH  47  50
ENDBRANCH  41  43
ENDBRANCH  40  41
BRANCH  40  55
ATOM     55  N   UNL     1      27.314  26.557   9.429  1.00  0.00    -0.344 N 
ATOM     56  C   UNL     1      28.545  26.596   8.894  1.00  0.00     0.224 C 
ATOM     57  O   UNL     1      28.739  26.590   7.682  1.00  0.00    -0.275 OA
ATOM     58  H   UNL     1      27.208  26.331  10.428  1.00  0.00     0.164 HD
BRANCH  56  59
ATOM     59  C   UNL     1      29.664  26.742   9.845  1.00  0.00     0.081 C 
ATOM     60  C   UNL     1      29.506  26.086  11.188  1.00  0.00     0.018 C 
ATOM     61  C   UNL     1      30.458  25.497  10.214  1.00  0.00    -0.001 C 
ATOM     62  C   UNL     1      31.952  25.565  10.449  1.00  0.00     0.008 C 
ENDBRANCH  56  59
ENDBRANCH  40  55
ENDBRANCH   1  40
TORSDOF 7
ENDMDL
MODEL 3
REMARK VINA RESULT:    -7.989      2.288      3.057
REMARK INTER + INTRA:         -19.287
REMARK INTER:                 -17.923
REMARK INTRA:                  -1.364
REMARK UNBOUND:                -3.358
REMARK SMILES CCn1c(-c2cc(N3CCN(C)CC3)cnc2[C@H](C)OC)c2c3cc(ccc31)-c1csc(n1)C[C@H](NC(=O)[C@H]1C[C@@H]1C)C(=O)N1CCC[C@H](N1)C(=O)OCC(C)(C)C2
REMARK SMILES IDX 34 1 32 2 29 3 30 4 33 5 31 6 25 7 3 8 28 9 4 10 23 11 27 12
REMARK SMILES IDX 22 13 24 14 26 15 2 16 1 17 5 18 17 19 6 20 16 21 7 22 15 23
REMARK SMILES IDX 18 24 19 25 20 26 21 27 8 28 14 29 9 30 13 31 10 32 11 33
REMARK SMILES IDX 12 34 58 35 55 36 56 37 57 38 35 40 43 41 44 42 45 43 46 44
REMARK SMILES IDX 50 45 47 46 49 47 48 48 51 50 52 51 53 52 54 53 36 55 37 56
REMARK SMILES IDX 38 57 39 59 40 60 41 61 42 62
REMARK H PARENT 50 49 36 58
REMARK Flexibility Score:  160.900
ROOT
ATOM      1  C   UNL     1      26.668  26.642   9.507  1.00  0.00     0.102 C 
ENDROOT
BRANCH   1   2
ATOM      2  C   UNL     1      26.504  25.311  10.172  1.00  0.00     0.096 A 
ATOM      3  C   UNL     1      26.668  23.744  11.723  1.00  0.00     0.081 A 
ATOM      4  C   UNL     1      25.982  23.029  10.800  1.00  0.00     0.095 A 
ATOM      5  N   UNL     1      27.032  25.027  11.328  1.00  0.00    -0.241 NA
ATOM      6  S   UNL     1      25.564  24.035   9.482  1.00  0.00    -0.127 S 
BRANCH   3   7
ATOM      7  C   UNL     1      27.067  23.328  13.082  1.00  0.00     0.002 A 
ATOM      8  N   UNL     1      28.126  22.351  16.944  1.00  0.00    -0.340 N 
ATOM      9  C   UNL     1      27.759  22.500  15.621  1.00  0.00     0.049 A 
ATOM     10  C   UNL     1      28.477  23.589  17.454  1.00  0.00     0.054 A 
ATOM     11  C   UNL     1      27.856  23.864  15.290  1.00  0.00     0.004 A 
ATOM     12  C   UNL     1      27.305  21.545  14.715  1.00  0.00     0.027 A 
ATOM     13  C   UNL     1      28.319  24.549  16.456  1.00  0.00    -0.014 A 
ATOM     14  C   UNL     1      27.501  24.276  14.001  1.00  0.00     0.021 A 
ATOM     15  C   UNL     1      26.975  21.987  13.453  1.00  0.00     0.012 A 
BRANCH   8  16
ATOM     16  C   UNL     1      28.188  21.052  17.611  1.00  0.00     0.119 C 
ATOM     17  C   UNL     1      26.832  20.408  17.609  1.00  0.00     0.027 C 
ENDBRANCH   8  16
BRANCH  10  18
ATOM     18  C   UNL     1      29.002  23.800  18.806  1.00  0.00     0.025 A 
ATOM     19  C   UNL     1      28.181  23.806  19.958  1.00  0.00     0.078 A 
ATOM     20  C   UNL     1      30.369  24.019  18.954  1.00  0.00     0.039 A 
ATOM     21  N   UNL     1      28.702  24.017  21.174  1.00  0.00    -0.256 NA
ATOM     22  C   UNL     1      30.888  24.251  20.218  1.00  0.00     0.056 A 
ATOM     23  C   UNL     1      30.024  24.230  21.302  1.00  0.00     0.137 A 
BRANCH  19  24
ATOM     24  C   UNL     1      26.678  23.590  19.907  1.00  0.00     0.164 C 
ATOM     25  C   UNL     1      25.998  24.571  20.838  1.00  0.00     0.045 C 
BRANCH  24  26
ATOM     26  O   UNL     1      26.412  22.268  20.376  1.00  0.00    -0.375 OA
ATOM     27  C   UNL     1      25.054  21.879  20.242  1.00  0.00     0.195 C 
ENDBRANCH  24  26
ENDBRANCH  19  24
BRANCH  22  28
ATOM     28  N   UNL     1      32.246  24.450  20.399  1.00  0.00    -0.368 N 
ATOM     29  C   UNL     1      33.045  25.267  19.472  1.00  0.00     0.132 C 
ATOM     30  C   UNL     1      32.920  24.004  21.623  1.00  0.00     0.132 C 
ATOM     31  C   UNL     1      34.486  24.816  19.380  1.00  0.00     0.105 C 
ATOM     32  C   UNL     1      34.357  23.602  21.394  1.00  0.00     0.105 C 
ATOM     33  N   UNL     1      35.076  24.669  20.707  1.00  0.00    -0.303 NA
ATOM     34  C   UNL     1      36.502  24.348  20.617  1.00  0.00     0.105 C 
ENDBRANCH  22  28
ENDBRANCH  10  18
BRANCH  13  35
ATOM     35  C   UNL     1      28.611  26.020  16.560  1.00  0.00     0.048 C 
BRANCH  35  36
ATOM     36  C   UNL     1      27.379  26.925  16.703  1.00  0.00     0.003 CG0
ATOM     37  C   UNL     1      26.793  26.658  18.091  1.00  0.00     0.015 C 
ATOM     38  C   UNL     1      26.318  26.583  15.651  1.00  0.00     0.015 C 
ATOM     39  G   UNL     1      27.757  28.397  16.575  1.00  0.00     0.000 G0
ENDBRANCH  35  36
ENDBRANCH  13  35
ENDBRANCH   3   7
ENDBRANCH   1   2
BRANCH   1  40
ATOM     40  C   UNL     1      28.148  27.051   9.444  1.00  0.00     0.179 C 
BRANCH  40  41
ATOM     41  C   UNL     1      28.655  27.312  10.852  1.00  0.00     0.259 C 
ATOM     42  O   UNL     1      29.619  26.716  11.317  1.00  0.00    -0.271 OA
BRANCH  41  43
ATOM     43  N   UNL     1      27.956  28.201  11.626  1.00  0.00    -0.275 N 
ATOM     44  C   UNL     1      26.976  29.163  11.097  1.00  0.00     0.140 C 
ATOM     45  N   UNL     1      28.195  28.243  13.019  1.00  0.00    -0.218 NA
ATOM     46  C   UNL     1      27.527  30.549  11.362  1.00  0.00     0.025 C 
ATOM     47  C   UNL     1      28.707  29.574  13.384  1.00  0.00     0.184 C 
ATOM     48  C   UNL     1      27.795  30.695  12.857  1.00  0.00     0.035 C 
ATOM     49  H   UNL     1      27.316  28.062  13.525  1.00  0.00     0.149 HD
BRANCH  47  50
ATOM     50  C   UNL     1      28.820  29.657  14.886  1.00  0.00     0.324 C 
ATOM     51  O   UNL     1      29.004  30.680  15.501  1.00  0.00    -0.250 OA
BRANCH  50  52
ATOM     52  O   UNL     1      28.704  28.452  15.456  1.00  0.00    -0.464 OA
BRANCH  52  53
ATOM     53  C   UNL     1      27.777  28.394  16.578  1.00  0.00     0.239 CG0
ATOM     54  G   UNL     1      27.371  26.928  16.706  1.00  0.00     0.000 G0
ENDBRANCH  52  53
ENDBRANCH  50  52
ENDBRANCH  47  50
ENDBRANCH  41  43
ENDBRANCH  40  41
BRANCH  40  55
ATOM     55  N   UNL     1      28.953  26.076   8.730  1.00  0.00    -0.344 N 
ATOM     56  C   UNL     1      29.181  26.181   7.411  1.00  0.00     0.224 C 
ATOM     57  O   UNL     1      28.526  26.922   6.683  1.00  0.00    -0.275 OA
ATOM     58  H   UNL     1      29.360  25.284   9.248  1.00  0.00     0.164 HD
BRANCH  56  59
ATOM     59  C   UNL     1      30.332  25.420   6.886  1.00  0.00     0.081 C 
ATOM     60  C   UNL     1      30.549  25.452   5.399  1.00  0.00     0.018 C 
ATOM     61  C   UNL     1      31.487  26.199   6.273  1.00  0.00    -0.001 C 
ATOM     62  C   UNL     1      32.918  25.739   6.448  1.00  0.00     0.008 C 
ENDBRANCH  56  59
ENDBRANCH  40  55
ENDBRANCH   1  40
TORSDOF 7
ENDMDL
MODEL 4
REMARK VINA RESULT:    -7.927      2.393      3.379
REMARK INTER + INTRA:         -19.163
REMARK INTER:                 -19.325
REMARK INTRA:                   0.162
REMARK UNBOUND:                -3.358
REMARK SMILES CCn1c(-c2cc(N3CCN(C)CC3)cnc2[C@H](C)OC)c2c3cc(ccc31)-c1csc(n1)C[C@H](NC(=O)[C@H]1C[C@@H]1C)C(=O)N1CCC[C@H](N1)C(=O)OCC(C)(C)C2
REMARK SMILES IDX 34 1 32 2 29 3 30 4 33 5 31 6 25 7 3 8 28 9 4 10 23 11 27 12
REMARK SMILES IDX 22 13 24 14 26 15 2 16 1 17 5 18 17 19 6 20 16 21 7 22 15 23
REMARK SMILES IDX 18 24 19 25 20 26 21 27 8 28 14 29 9 30 13 31 10 32 11 33
REMARK SMILES IDX 12 34 58 35 55 36 56 37 57 38 35 40 43 41 44 42 45 43 46 44
REMARK SMILES IDX 50 45 47 46 49 47 48 48 51 50 52 51 53 52 54 53 36 55 37 56
REMARK SMILES IDX 38 57 39 59 40 60 41 61 42 62
REMARK H PARENT 50 49 36 58
REMARK Flexibility Score:  160.900
ROOT
ATOM      1  C   UNL     1      28.050  25.364   7.753  1.00  0.00     0.102 C 
ENDROOT
BRANCH   1   2
ATOM      2  C   UNL     1      27.096  25.000   8.848  1.00  0.00     0.096 A 
ATOM      3  C   UNL     1      26.389  24.290  10.819  1.00  0.00     0.081 A 
ATOM      4  C   UNL     1      25.183  24.568  10.272  1.00  0.00     0.095 A 
ATOM      5  N   UNL     1      27.479  24.466   9.972  1.00  0.00    -0.241 NA
ATOM      6  S   UNL     1      25.396  25.291   8.737  1.00  0.00    -0.127 S 
BRANCH   3   7
ATOM      7  C   UNL     1      26.680  23.829  12.190  1.00  0.00     0.002 A 
ATOM      8  N   UNL     1      27.464  22.736  16.087  1.00  0.00    -0.340 N 
ATOM      9  C   UNL     1      27.161  22.928  14.753  1.00  0.00     0.049 A 
ATOM     10  C   UNL     1      27.993  23.908  16.599  1.00  0.00     0.054 A 
ATOM     11  C   UNL     1      27.484  24.256  14.418  1.00  0.00     0.004 A 
ATOM     12  C   UNL     1      26.587  22.049  13.841  1.00  0.00     0.027 A 
ATOM     13  C   UNL     1      28.018  24.871  15.592  1.00  0.00    -0.014 A 
ATOM     14  C   UNL     1      27.235  24.706  13.116  1.00  0.00     0.021 A 
ATOM     15  C   UNL     1      26.365  22.524  12.567  1.00  0.00     0.012 A 
BRANCH   8  16
ATOM     16  C   UNL     1      27.301  21.452  16.763  1.00  0.00     0.119 C 
ATOM     17  C   UNL     1      28.602  20.702  16.761  1.00  0.00     0.027 C 
ENDBRANCH   8  16
BRANCH  10  18
ATOM     18  C   UNL     1      28.508  24.048  17.965  1.00  0.00     0.025 A 
ATOM     19  C   UNL     1      27.669  24.205  19.091  1.00  0.00     0.078 A 
ATOM     20  C   UNL     1      29.889  24.039  18.152  1.00  0.00     0.039 A 
ATOM     21  N   UNL     1      28.183  24.342  20.321  1.00  0.00    -0.256 NA
ATOM     22  C   UNL     1      30.403  24.199  19.428  1.00  0.00     0.056 A 
ATOM     23  C   UNL     1      29.518  24.335  20.486  1.00  0.00     0.137 A 
BRANCH  19  24
ATOM     24  C   UNL     1      26.153  24.240  18.998  1.00  0.00     0.164 C 
ATOM     25  C   UNL     1      25.600  25.085  20.125  1.00  0.00     0.045 C 
BRANCH  24  26
ATOM     26  O   UNL     1      25.675  22.904  19.162  1.00  0.00    -0.375 OA
ATOM     27  C   UNL     1      25.255  22.607  20.485  1.00  0.00     0.195 C 
ENDBRANCH  24  26
ENDBRANCH  19  24
BRANCH  22  28
ATOM     28  N   UNL     1      31.770  24.172  19.648  1.00  0.00    -0.368 N 
ATOM     29  C   UNL     1      32.738  24.185  18.540  1.00  0.00     0.132 C 
ATOM     30  C   UNL     1      32.322  24.312  20.999  1.00  0.00     0.132 C 
ATOM     31  C   UNL     1      34.025  23.463  18.872  1.00  0.00     0.105 C 
ATOM     32  C   UNL     1      33.617  23.559  21.190  1.00  0.00     0.105 C 
ATOM     33  N   UNL     1      34.570  23.921  20.147  1.00  0.00    -0.303 NA
ATOM     34  C   UNL     1      35.874  23.310  20.413  1.00  0.00     0.105 C 
ENDBRANCH  22  28
ENDBRANCH  10  18
BRANCH  13  35
ATOM     35  C   UNL     1      28.538  26.277  15.695  1.00  0.00     0.048 C 
BRANCH  35  36
ATOM     36  C   UNL     1      27.469  27.356  15.927  1.00  0.00     0.003 CG0
ATOM     37  C   UNL     1      27.283  27.477  17.440  1.00  0.00     0.015 C 
ATOM     38  C   UNL     1      26.131  26.950  15.301  1.00  0.00     0.015 C 
ATOM     39  G   UNL     1      27.905  28.699  15.349  1.00  0.00     0.000 G0
ENDBRANCH  35  36
ENDBRANCH  13  35
ENDBRANCH   3   7
ENDBRANCH   1   2
BRANCH   1  40
ATOM     40  C   UNL     1      29.008  26.478   8.202  1.00  0.00     0.179 C 
BRANCH  40  41
ATOM     41  C   UNL     1      28.879  26.673   9.704  1.00  0.00     0.259 C 
ATOM     42  O   UNL     1      29.503  25.987  10.505  1.00  0.00    -0.271 OA
BRANCH  41  43
ATOM     43  N   UNL     1      27.985  27.611  10.149  1.00  0.00    -0.275 N 
ATOM     44  C   UNL     1      27.084  28.375   9.271  1.00  0.00     0.140 C 
ATOM     45  N   UNL     1      27.922  27.907  11.530  1.00  0.00    -0.218 NA
ATOM     46  C   UNL     1      27.489  29.832   9.382  1.00  0.00     0.025 C 
ATOM     47  C   UNL     1      28.270  29.322  11.739  1.00  0.00     0.184 C 
ATOM     48  C   UNL     1      27.428  30.249  10.848  1.00  0.00     0.035 C 
ATOM     49  H   UNL     1      26.968  27.733  11.878  1.00  0.00     0.149 HD
BRANCH  47  50
ATOM     50  C   UNL     1      28.061  29.665  13.193  1.00  0.00     0.324 C 
ATOM     51  O   UNL     1      28.245  30.760  13.669  1.00  0.00    -0.250 OA
BRANCH  50  52
ATOM     52  O   UNL     1      27.657  28.602  13.898  1.00  0.00    -0.464 OA
BRANCH  52  53
ATOM     53  C   UNL     1      27.895  28.692  15.332  1.00  0.00     0.239 CG0
ATOM     54  G   UNL     1      27.481  27.341  15.908  1.00  0.00     0.000 G0
ENDBRANCH  52  53
ENDBRANCH  50  52
ENDBRANCH  47  50
ENDBRANCH  41  43
ENDBRANCH  40  41
BRANCH  40  55
ATOM     55  N   UNL     1      30.376  26.222   7.786  1.00  0.00    -0.344 N 
ATOM     56  C   UNL     1      30.683  25.944   6.509  1.00  0.00     0.224 C 
ATOM     57  O   UNL     1      29.836  25.624   5.679  1.00  0.00    -0.275 OA
ATOM     58  H   UNL     1      31.129  26.255   8.488  1.00  0.00     0.164 HD
BRANCH  56  59
ATOM     59  C   UNL     1      32.095  26.134   6.122  1.00  0.00     0.081 C 
ATOM     60  C   UNL     1      32.809  24.943   5.547  1.00  0.00     0.018 C 
ATOM     61  C   UNL     1      32.449  26.063   4.643  1.00  0.00    -0.001 C 
ATOM     62  C   UNL     1      33.517  26.960   4.054  1.00  0.00     0.008 C 
ENDBRANCH  56  59
ENDBRANCH  40  55
ENDBRANCH   1  40
TORSDOF 7
ENDMDL
