MODEL 1
REMARK VINA RESULT:    -7.436      0.000      0.000
REMARK INTER + INTRA:         -18.271
REMARK INTER:                 -14.827
REMARK INTRA:                  -3.444
REMARK UNBOUND:                -3.444
REMARK SMILES CCn1c(-c2cc(N3CCN(C)CC3)cnc2[C@H](C)OC)c2c3cc(ccc31)-c1csc(n1)C[C@H](NC(=O)[C@H]1C[C@@H]1C)C(=O)N1CCC[C@H](N1)C(=O)OCC(C)(C)C2
REMARK SMILES IDX 34 1 32 2 29 3 30 4 33 5 31 6 25 7 3 8 28 9 4 10 23 11 27 12
REMARK SMILES IDX 22 13 24 14 26 15 2 16 1 17 5 18 17 19 6 20 16 21 7 22 15 23
REMARK SMILES IDX 18 24 19 25 20 26 21 27 8 28 14 29 9 30 13 31 10 32 11 33
REMARK SMILES IDX 12 34 58 35 55 36 56 37 57 38 35 40 43 41 44 42 45 43 46 44
REMARK SMILES IDX 50 45 47 46 49 47 48 48 51 50 52 51 53 52 54 53 36 55 37 56
REMARK SMILES IDX 38 57 39 59 40 60 41 61 42 62
REMARK H PARENT 50 49 36 58
REMARK Flexibility Score:  160.900
ROOT
ATOM      1  C   UNL     1     -13.819  31.710  -3.903  1.00  0.00     0.102 C 
ENDROOT
BRANCH   1   2
ATOM      2  C   UNL     1     -14.718  30.543  -4.162  1.00  0.00     0.096 A 
ATOM      3  C   UNL     1     -16.429  29.161  -3.926  1.00  0.00     0.081 A 
ATOM      4  C   UNL     1     -15.828  28.545  -4.972  1.00  0.00     0.095 A 
ATOM      5  N   UNL     1     -15.748  30.262  -3.417  1.00  0.00    -0.241 NA
ATOM      6  S   UNL     1     -14.496  29.475  -5.504  1.00  0.00    -0.127 S 
BRANCH   3   7
ATOM      7  C   UNL     1     -17.705  28.807  -3.276  1.00  0.00     0.002 A 
ATOM      8  N   UNL     1     -21.200  27.907  -1.285  1.00  0.00    -0.340 N 
ATOM      9  C   UNL     1     -20.125  28.191  -2.104  1.00  0.00     0.049 A 
ATOM     10  C   UNL     1     -20.752  27.793   0.020  1.00  0.00     0.054 A 
ATOM     11  C   UNL     1     -18.974  28.282  -1.300  1.00  0.00     0.004 A 
ATOM     12  C   UNL     1     -20.095  28.420  -3.476  1.00  0.00     0.027 A 
ATOM     13  C   UNL     1     -19.377  28.022   0.046  1.00  0.00    -0.014 A 
ATOM     14  C   UNL     1     -17.750  28.597  -1.902  1.00  0.00     0.021 A 
ATOM     15  C   UNL     1     -18.871  28.717  -4.034  1.00  0.00     0.012 A 
BRANCH   8  16
ATOM     16  C   UNL     1     -22.553  27.694  -1.792  1.00  0.00     0.119 C 
ATOM     17  C   UNL     1     -22.773  26.235  -2.073  1.00  0.00     0.027 C 
ENDBRANCH   8  16
BRANCH  10  18
ATOM     18  C   UNL     1     -21.603  27.412   1.150  1.00  0.00     0.025 A 
ATOM     19  C   UNL     1     -22.490  28.313   1.783  1.00  0.00     0.078 A 
ATOM     20  C   UNL     1     -21.520  26.106   1.626  1.00  0.00     0.039 A 
ATOM     21  N   UNL     1     -23.241  27.926   2.822  1.00  0.00    -0.256 NA
ATOM     22  C   UNL     1     -22.293  25.727   2.713  1.00  0.00     0.056 A 
ATOM     23  C   UNL     1     -23.148  26.662   3.274  1.00  0.00     0.137 A 
BRANCH  19  24
ATOM     24  C   UNL     1     -22.650  29.761   1.352  1.00  0.00     0.164 C 
ATOM     25  C   UNL     1     -22.115  30.671   2.436  1.00  0.00     0.045 C 
BRANCH  24  26
ATOM     26  O   UNL     1     -24.046  30.019   1.198  1.00  0.00    -0.375 OA
ATOM     27  C   UNL     1     -24.338  31.025   0.240  1.00  0.00     0.195 C 
ENDBRANCH  24  26
ENDBRANCH  19  24
BRANCH  22  28
ATOM     28  N   UNL     1     -22.247  24.430   3.194  1.00  0.00    -0.368 N 
ATOM     29  C   UNL     1     -23.426  23.772   3.777  1.00  0.00     0.132 C 
ATOM     30  C   UNL     1     -21.066  23.586   2.983  1.00  0.00     0.132 C 
ATOM     31  C   UNL     1     -23.071  22.750   4.835  1.00  0.00     0.105 C 
ATOM     32  C   UNL     1     -20.838  22.597   4.101  1.00  0.00     0.105 C 
ATOM     33  N   UNL     1     -22.051  21.826   4.349  1.00  0.00    -0.303 NA
ATOM     34  C   UNL     1     -21.792  20.767   5.325  1.00  0.00     0.105 C 
ENDBRANCH  22  28
ENDBRANCH  10  18
BRANCH  13  35
ATOM     35  C   UNL     1     -18.473  27.971   1.246  1.00  0.00     0.048 C 
BRANCH  35  36
ATOM     36  C   UNL     1     -18.052  29.337   1.808  1.00  0.00     0.003 CG0
ATOM     37  C   UNL     1     -18.633  29.432   3.220  1.00  0.00     0.015 C 
ATOM     38  C   UNL     1     -18.626  30.481   0.966  1.00  0.00     0.015 C 
ATOM     39  G   UNL     1     -16.533  29.468   1.862  1.00  0.00     0.000 G0
ENDBRANCH  35  36
ENDBRANCH  13  35
ENDBRANCH   3   7
ENDBRANCH   1   2
BRANCH   1  40
ATOM     40  C   UNL     1     -14.364  32.586  -2.764  1.00  0.00     0.179 C 
BRANCH  40  41
ATOM     41  C   UNL     1     -13.301  32.727  -1.688  1.00  0.00     0.259 C 
ATOM     42  O   UNL     1     -12.809  33.810  -1.397  1.00  0.00    -0.271 OA
BRANCH  41  43
ATOM     43  N   UNL     1     -12.851  31.581  -1.084  1.00  0.00    -0.275 N 
ATOM     44  C   UNL     1     -11.563  30.939  -1.389  1.00  0.00     0.140 C 
ATOM     45  N   UNL     1     -13.669  30.935  -0.128  1.00  0.00    -0.218 NA
ATOM     46  C   UNL     1     -11.874  29.581  -1.987  1.00  0.00     0.025 C 
ATOM     47  C   UNL     1     -14.002  29.584  -0.608  1.00  0.00     0.184 C 
ATOM     48  C   UNL     1     -12.742  28.799  -1.006  1.00  0.00     0.035 C 
ATOM     49  H   UNL     1     -13.165  30.868   0.767  1.00  0.00     0.149 HD
BRANCH  47  50
ATOM     50  C   UNL     1     -14.751  28.854   0.478  1.00  0.00     0.324 C 
ATOM     51  O   UNL     1     -14.263  28.015   1.198  1.00  0.00    -0.250 OA
BRANCH  50  52
ATOM     52  O   UNL     1     -16.031  29.239   0.541  1.00  0.00    -0.464 OA
BRANCH  52  53
ATOM     53  C   UNL     1     -16.539  29.457   1.889  1.00  0.00     0.239 CG0
ATOM     54  G   UNL     1     -18.056  29.326   1.787  1.00  0.00     0.000 G0
ENDBRANCH  52  53
ENDBRANCH  50  52
ENDBRANCH  47  50
ENDBRANCH  41  43
ENDBRANCH  40  41
BRANCH  40  55
ATOM     55  N   UNL     1     -14.847  33.869  -3.245  1.00  0.00    -0.344 N 
ATOM     56  C   UNL     1     -16.159  34.122  -3.379  1.00  0.00     0.224 C 
ATOM     57  O   UNL     1     -17.008  33.235  -3.371  1.00  0.00    -0.275 OA
ATOM     58  H   UNL     1     -14.167  34.602  -3.489  1.00  0.00     0.164 HD
BRANCH  56  59
ATOM     59  C   UNL     1     -16.544  35.545  -3.446  1.00  0.00     0.081 C 
ATOM     60  C   UNL     1     -17.688  35.900  -4.353  1.00  0.00     0.018 C 
ATOM     61  C   UNL     1     -17.901  35.948  -2.886  1.00  0.00    -0.001 C 
ATOM     62  C   UNL     1     -18.089  37.269  -2.171  1.00  0.00     0.008 C 
ENDBRANCH  56  59
ENDBRANCH  40  55
ENDBRANCH   1  40
TORSDOF 7
ENDMDL
MODEL 2
REMARK VINA RESULT:    -7.187      2.958      4.530
REMARK INTER + INTRA:         -17.773
REMARK INTER:                 -13.201
REMARK INTRA:                  -4.572
REMARK UNBOUND:                -3.444
REMARK SMILES CCn1c(-c2cc(N3CCN(C)CC3)cnc2[C@H](C)OC)c2c3cc(ccc31)-c1csc(n1)C[C@H](NC(=O)[C@H]1C[C@@H]1C)C(=O)N1CCC[C@H](N1)C(=O)OCC(C)(C)C2
REMARK SMILES IDX 34 1 32 2 29 3 30 4 33 5 31 6 25 7 3 8 28 9 4 10 23 11 27 12
REMARK SMILES IDX 22 13 24 14 26 15 2 16 1 17 5 18 17 19 6 20 16 21 7 22 15 23
REMARK SMILES IDX 18 24 19 25 20 26 21 27 8 28 14 29 9 30 13 31 10 32 11 33
REMARK SMILES IDX 12 34 58 35 55 36 56 37 57 38 35 40 43 41 44 42 45 43 46 44
REMARK SMILES IDX 50 45 47 46 49 47 48 48 51 50 52 51 53 52 54 53 36 55 37 56
REMARK SMILES IDX 38 57 39 59 40 60 41 61 42 62
REMARK H PARENT 50 49 36 58
REMARK Flexibility Score:  160.900
ROOT
ATOM      1  C   UNL     1     -12.544  32.681  -1.993  1.00  0.00     0.102 C 
ENDROOT
BRANCH   1   2
ATOM      2  C   UNL     1     -13.054  31.398  -1.415  1.00  0.00     0.096 A 
ATOM      3  C   UNL     1     -14.391  30.007  -0.336  1.00  0.00     0.081 A 
ATOM      4  C   UNL     1     -13.436  29.116  -0.693  1.00  0.00     0.095 A 
ATOM      5  N   UNL     1     -14.130  31.328  -0.686  1.00  0.00    -0.241 NA
ATOM      6  S   UNL     1     -12.279  29.878  -1.695  1.00  0.00    -0.127 S 
BRANCH   3   7
ATOM      7  C   UNL     1     -15.661  29.744   0.369  1.00  0.00     0.002 A 
ATOM      8  N   UNL     1     -19.296  28.979   2.155  1.00  0.00    -0.340 N 
ATOM      9  C   UNL     1     -18.004  29.191   1.716  1.00  0.00     0.049 A 
ATOM     10  C   UNL     1     -20.178  29.407   1.177  1.00  0.00     0.054 A 
ATOM     11  C   UNL     1     -18.066  29.743   0.423  1.00  0.00     0.004 A 
ATOM     12  C   UNL     1     -16.797  28.892   2.340  1.00  0.00     0.027 A 
ATOM     13  C   UNL     1     -19.448  29.884   0.089  1.00  0.00    -0.014 A 
ATOM     14  C   UNL     1     -16.873  30.019  -0.254  1.00  0.00     0.021 A 
ATOM     15  C   UNL     1     -15.644  29.187   1.647  1.00  0.00     0.012 A 
BRANCH   8  16
ATOM     16  C   UNL     1     -19.610  28.459   3.483  1.00  0.00     0.119 C 
ATOM     17  C   UNL     1     -19.068  29.382   4.537  1.00  0.00     0.027 C 
ENDBRANCH   8  16
BRANCH  10  18
ATOM     18  C   UNL     1     -21.636  29.415   1.333  1.00  0.00     0.025 A 
ATOM     19  C   UNL     1     -22.336  30.472   1.958  1.00  0.00     0.078 A 
ATOM     20  C   UNL     1     -22.355  28.323   0.854  1.00  0.00     0.039 A 
ATOM     21  N   UNL     1     -23.669  30.432   2.091  1.00  0.00    -0.256 NA
ATOM     22  C   UNL     1     -23.731  28.291   1.014  1.00  0.00     0.056 A 
ATOM     23  C   UNL     1     -24.350  29.369   1.627  1.00  0.00     0.137 A 
BRANCH  19  24
ATOM     24  C   UNL     1     -21.650  31.703   2.525  1.00  0.00     0.164 C 
ATOM     25  C   UNL     1     -21.857  31.748   4.023  1.00  0.00     0.045 C 
BRANCH  24  26
ATOM     26  O   UNL     1     -22.271  32.852   1.950  1.00  0.00    -0.375 OA
ATOM     27  C   UNL     1     -21.783  33.176   0.657  1.00  0.00     0.195 C 
ENDBRANCH  24  26
ENDBRANCH  19  24
BRANCH  22  28
ATOM     28  N   UNL     1     -24.474  27.229   0.529  1.00  0.00    -0.368 N 
ATOM     29  C   UNL     1     -25.888  27.037   0.889  1.00  0.00     0.132 C 
ATOM     30  C   UNL     1     -23.939  26.343  -0.510  1.00  0.00     0.132 C 
ATOM     31  C   UNL     1     -26.304  25.582   0.896  1.00  0.00     0.105 C 
ATOM     32  C   UNL     1     -24.450  24.926  -0.400  1.00  0.00     0.105 C 
ATOM     33  N   UNL     1     -25.907  24.917  -0.342  1.00  0.00    -0.303 NA
ATOM     34  C   UNL     1     -26.411  23.544  -0.387  1.00  0.00     0.105 C 
ENDBRANCH  22  28
ENDBRANCH  10  18
BRANCH  13  35
ATOM     35  C   UNL     1     -19.997  30.472  -1.181  1.00  0.00     0.048 C 
BRANCH  35  36
ATOM     36  C   UNL     1     -20.314  29.457  -2.289  1.00  0.00     0.003 CG0
ATOM     37  C   UNL     1     -21.834  29.454  -2.464  1.00  0.00     0.015 C 
ATOM     38  C   UNL     1     -19.866  28.047  -1.891  1.00  0.00     0.015 C 
ATOM     39  G   UNL     1     -19.642  29.844  -3.602  1.00  0.00     0.000 G0
ENDBRANCH  35  36
ENDBRANCH  13  35
ENDBRANCH   3   7
ENDBRANCH   1   2
BRANCH   1  40
ATOM     40  C   UNL     1     -13.428  33.153  -3.158  1.00  0.00     0.179 C 
BRANCH  40  41
ATOM     41  C   UNL     1     -13.213  32.237  -4.351  1.00  0.00     0.259 C 
ATOM     42  O   UNL     1     -12.098  31.857  -4.686  1.00  0.00    -0.271 OA
BRANCH  41  43
ATOM     43  N   UNL     1     -14.312  31.892  -5.093  1.00  0.00    -0.275 N 
ATOM     44  C   UNL     1     -14.755  32.613  -6.297  1.00  0.00     0.140 C 
ATOM     45  N   UNL     1     -15.109  30.797  -4.683  1.00  0.00    -0.218 NA
ATOM     46  C   UNL     1     -16.113  33.208  -5.983  1.00  0.00     0.025 C 
ATOM     47  C   UNL     1     -16.470  31.273  -4.384  1.00  0.00     0.184 C 
ATOM     48  C   UNL     1     -17.053  32.087  -5.550  1.00  0.00     0.035 C 
ATOM     49  H   UNL     1     -15.147  30.097  -5.438  1.00  0.00     0.149 HD
BRANCH  47  50
ATOM     50  C   UNL     1     -17.347  30.082  -4.089  1.00  0.00     0.324 C 
ATOM     51  O   UNL     1     -17.177  28.978  -4.550  1.00  0.00    -0.250 OA
BRANCH  50  52
ATOM     52  O   UNL     1     -18.347  30.399  -3.259  1.00  0.00    -0.464 OA
BRANCH  52  53
ATOM     53  C   UNL     1     -19.640  29.828  -3.613  1.00  0.00     0.239 CG0
ATOM     54  G   UNL     1     -20.305  29.455  -2.291  1.00  0.00     0.000 G0
ENDBRANCH  52  53
ENDBRANCH  50  52
ENDBRANCH  47  50
ENDBRANCH  41  43
ENDBRANCH  40  41
BRANCH  40  55
ATOM     55  N   UNL     1     -14.826  33.256  -2.775  1.00  0.00    -0.344 N 
ATOM     56  C   UNL     1     -15.329  34.382  -2.243  1.00  0.00     0.224 C 
ATOM     57  O   UNL     1     -14.618  35.279  -1.800  1.00  0.00    -0.275 OA
ATOM     58  H   UNL     1     -15.446  32.446  -2.916  1.00  0.00     0.164 HD
BRANCH  56  59
ATOM     59  C   UNL     1     -16.796  34.530  -2.301  1.00  0.00     0.081 C 
ATOM     60  C   UNL     1     -17.382  35.763  -1.672  1.00  0.00     0.018 C 
ATOM     61  C   UNL     1     -17.370  35.655  -3.152  1.00  0.00    -0.001 C 
ATOM     62  C   UNL     1     -18.656  35.468  -3.928  1.00  0.00     0.008 C 
ENDBRANCH  56  59
ENDBRANCH  40  55
ENDBRANCH   1  40
TORSDOF 7
ENDMDL
MODEL 3
REMARK VINA RESULT:    -7.172      1.842      3.446
REMARK INTER + INTRA:         -17.744
REMARK INTER:                 -14.033
REMARK INTRA:                  -3.712
REMARK UNBOUND:                -3.444
REMARK SMILES CCn1c(-c2cc(N3CCN(C)CC3)cnc2[C@H](C)OC)c2c3cc(ccc31)-c1csc(n1)C[C@H](NC(=O)[C@H]1C[C@@H]1C)C(=O)N1CCC[C@H](N1)C(=O)OCC(C)(C)C2
REMARK SMILES IDX 34 1 32 2 29 3 30 4 33 5 31 6 25 7 3 8 28 9 4 10 23 11 27 12
REMARK SMILES IDX 22 13 24 14 26 15 2 16 1 17 5 18 17 19 6 20 16 21 7 22 15 23
REMARK SMILES IDX 18 24 19 25 20 26 21 27 8 28 14 29 9 30 13 31 10 32 11 33
REMARK SMILES IDX 12 34 58 35 55 36 56 37 57 38 35 40 43 41 44 42 45 43 46 44
REMARK SMILES IDX 50 45 47 46 49 47 48 48 51 50 52 51 53 52 54 53 36 55 37 56
REMARK SMILES IDX 38 57 39 59 40 60 41 61 42 62
REMARK H PARENT 50 49 36 58
REMARK Flexibility Score:  160.900
ROOT
ATOM      1  C   UNL     1     -14.208  31.432  -4.156  1.00  0.00     0.102 C 
ENDROOT
BRANCH   1   2
ATOM      2  C   UNL     1     -15.148  30.275  -4.288  1.00  0.00     0.096 A 
ATOM      3  C   UNL     1     -16.839  28.926  -3.832  1.00  0.00     0.081 A 
ATOM      4  C   UNL     1     -16.371  28.282  -4.927  1.00  0.00     0.095 A 
ATOM      5  N   UNL     1     -16.089  30.024  -3.425  1.00  0.00    -0.241 NA
ATOM      6  S   UNL     1     -15.095  29.180  -5.626  1.00  0.00    -0.127 S 
BRANCH   3   7
ATOM      7  C   UNL     1     -18.037  28.604  -3.033  1.00  0.00     0.002 A 
ATOM      8  N   UNL     1     -21.294  27.796  -0.638  1.00  0.00    -0.340 N 
ATOM      9  C   UNL     1     -20.316  28.048  -1.581  1.00  0.00     0.049 A 
ATOM     10  C   UNL     1     -20.699  27.690   0.607  1.00  0.00     0.054 A 
ATOM     11  C   UNL     1     -19.079  28.128  -0.916  1.00  0.00     0.004 A 
ATOM     12  C   UNL     1     -20.441  28.259  -2.950  1.00  0.00     0.027 A 
ATOM     13  C   UNL     1     -19.327  27.893   0.471  1.00  0.00    -0.014 A 
ATOM     14  C   UNL     1     -17.928  28.413  -1.660  1.00  0.00     0.021 A 
ATOM     15  C   UNL     1     -19.285  28.526  -3.650  1.00  0.00     0.012 A 
BRANCH   8  16
ATOM     16  C   UNL     1     -22.700  27.601  -0.983  1.00  0.00     0.119 C 
ATOM     17  C   UNL     1     -23.436  28.908  -0.896  1.00  0.00     0.027 C 
ENDBRANCH   8  16
BRANCH  10  18
ATOM     18  C   UNL     1     -21.421  27.340   1.834  1.00  0.00     0.025 A 
ATOM     19  C   UNL     1     -21.817  26.018   2.143  1.00  0.00     0.078 A 
ATOM     20  C   UNL     1     -21.740  28.362   2.725  1.00  0.00     0.039 A 
ATOM     21  N   UNL     1     -22.487  25.745   3.270  1.00  0.00    -0.256 NA
ATOM     22  C   UNL     1     -22.448  28.063   3.878  1.00  0.00     0.056 A 
ATOM     23  C   UNL     1     -22.792  26.742   4.120  1.00  0.00     0.137 A 
BRANCH  19  24
ATOM     24  C   UNL     1     -21.531  24.833   1.237  1.00  0.00     0.164 C 
ATOM     25  C   UNL     1     -22.757  24.530   0.403  1.00  0.00     0.045 C 
BRANCH  24  26
ATOM     26  O   UNL     1     -21.263  23.704   2.068  1.00  0.00    -0.375 OA
ATOM     27  C   UNL     1     -19.930  23.226   1.967  1.00  0.00     0.195 C 
ENDBRANCH  24  26
ENDBRANCH  19  24
BRANCH  22  28
ATOM     28  N   UNL     1     -22.760  29.055   4.793  1.00  0.00    -0.368 N 
ATOM     29  C   UNL     1     -21.793  30.095   5.176  1.00  0.00     0.132 C 
ATOM     30  C   UNL     1     -24.130  29.222   5.289  1.00  0.00     0.132 C 
ATOM     31  C   UNL     1     -21.992  30.596   6.589  1.00  0.00     0.105 C 
ATOM     32  C   UNL     1     -24.186  29.746   6.705  1.00  0.00     0.105 C 
ATOM     33  N   UNL     1     -23.387  30.960   6.825  1.00  0.00    -0.303 NA
ATOM     34  C   UNL     1     -23.558  31.554   8.152  1.00  0.00     0.105 C 
ENDBRANCH  22  28
ENDBRANCH  10  18
BRANCH  13  35
ATOM     35  C   UNL     1     -18.291  27.841   1.559  1.00  0.00     0.048 C 
BRANCH  35  36
ATOM     36  C   UNL     1     -17.881  29.202   2.140  1.00  0.00     0.003 CG0
ATOM     37  C   UNL     1     -18.449  29.267   3.558  1.00  0.00     0.015 C 
ATOM     38  C   UNL     1     -18.477  30.353   1.322  1.00  0.00     0.015 C 
ATOM     39  G   UNL     1     -16.363  29.350   2.181  1.00  0.00     0.000 G0
ENDBRANCH  35  36
ENDBRANCH  13  35
ENDBRANCH   3   7
ENDBRANCH   1   2
BRANCH   1  40
ATOM     40  C   UNL     1     -14.604  32.333  -2.977  1.00  0.00     0.179 C 
BRANCH  40  41
ATOM     41  C   UNL     1     -13.396  32.540  -2.078  1.00  0.00     0.259 C 
ATOM     42  O   UNL     1     -12.825  33.620  -1.994  1.00  0.00    -0.271 OA
BRANCH  41  43
ATOM     43  N   UNL     1     -12.914  31.451  -1.400  1.00  0.00    -0.275 N 
ATOM     44  C   UNL     1     -11.659  30.759  -1.736  1.00  0.00     0.140 C 
ATOM     45  N   UNL     1     -13.664  30.916  -0.327  1.00  0.00    -0.218 NA
ATOM     46  C   UNL     1     -12.030  29.355  -2.172  1.00  0.00     0.025 C 
ATOM     47  C   UNL     1     -14.047  29.530  -0.645  1.00  0.00     0.184 C 
ATOM     48  C   UNL     1     -12.829  28.687  -1.057  1.00  0.00     0.035 C 
ATOM     49  H   UNL     1     -13.094  30.927   0.531  1.00  0.00     0.149 HD
BRANCH  47  50
ATOM     50  C   UNL     1     -14.718  28.923   0.561  1.00  0.00     0.324 C 
ATOM     51  O   UNL     1     -14.269  28.001   1.200  1.00  0.00    -0.250 OA
BRANCH  50  52
ATOM     52  O   UNL     1     -15.884  29.522   0.831  1.00  0.00    -0.464 OA
BRANCH  52  53
ATOM     53  C   UNL     1     -16.358  29.350   2.198  1.00  0.00     0.239 CG0
ATOM     54  G   UNL     1     -17.874  29.220   2.098  1.00  0.00     0.000 G0
ENDBRANCH  52  53
ENDBRANCH  50  52
ENDBRANCH  47  50
ENDBRANCH  41  43
ENDBRANCH  40  41
BRANCH  40  55
ATOM     55  N   UNL     1     -15.193  33.585  -3.419  1.00  0.00    -0.344 N 
ATOM     56  C   UNL     1     -16.397  33.990  -2.984  1.00  0.00     0.224 C 
ATOM     57  O   UNL     1     -17.183  33.236  -2.418  1.00  0.00    -0.275 OA
ATOM     58  H   UNL     1     -14.674  34.177  -4.083  1.00  0.00     0.164 HD
BRANCH  56  59
ATOM     59  C   UNL     1     -16.696  35.427  -3.139  1.00  0.00     0.081 C 
ATOM     60  C   UNL     1     -17.652  35.809  -4.234  1.00  0.00     0.018 C 
ATOM     61  C   UNL     1     -18.108  35.903  -2.825  1.00  0.00    -0.001 C 
ATOM     62  C   UNL     1     -18.350  37.249  -2.175  1.00  0.00     0.008 C 
ENDBRANCH  56  59
ENDBRANCH  40  55
ENDBRANCH   1  40
TORSDOF 7
ENDMDL
MODEL 4
REMARK VINA RESULT:    -7.155      3.347     10.445
REMARK INTER + INTRA:         -17.711
REMARK INTER:                 -14.689
REMARK INTRA:                  -3.021
REMARK UNBOUND:                -3.444
REMARK SMILES CCn1c(-c2cc(N3CCN(C)CC3)cnc2[C@H](C)OC)c2c3cc(ccc31)-c1csc(n1)C[C@H](NC(=O)[C@H]1C[C@@H]1C)C(=O)N1CCC[C@H](N1)C(=O)OCC(C)(C)C2
REMARK SMILES IDX 34 1 32 2 29 3 30 4 33 5 31 6 25 7 3 8 28 9 4 10 23 11 27 12
REMARK SMILES IDX 22 13 24 14 26 15 2 16 1 17 5 18 17 19 6 20 16 21 7 22 15 23
REMARK SMILES IDX 18 24 19 25 20 26 21 27 8 28 14 29 9 30 13 31 10 32 11 33
REMARK SMILES IDX 12 34 58 35 55 36 56 37 57 38 35 40 43 41 44 42 45 43 46 44
REMARK SMILES IDX 50 45 47 46 49 47 48 48 51 50 52 51 53 52 54 53 36 55 37 56
REMARK SMILES IDX 38 57 39 59 40 60 41 61 42 62
REMARK H PARENT 50 49 36 58
REMARK Flexibility Score:  160.900
ROOT
ATOM      1  C   UNL     1     -21.934  31.543   4.341  1.00  0.00     0.102 C 
ENDROOT
BRANCH   1   2
ATOM      2  C   UNL     1     -21.787  31.876   2.889  1.00  0.00     0.096 A 
ATOM      3  C   UNL     1     -20.816  32.490   1.000  1.00  0.00     0.081 A 
ATOM      4  C   UNL     1     -22.067  32.295   0.519  1.00  0.00     0.095 A 
ATOM      5  N   UNL     1     -20.678  32.324   2.374  1.00  0.00    -0.241 NA
ATOM      6  S   UNL     1     -23.069  31.661   1.750  1.00  0.00    -0.127 S 
BRANCH   3   7
ATOM      7  C   UNL     1     -19.600  32.852   0.248  1.00  0.00     0.002 A 
ATOM      8  N   UNL     1     -16.225  33.693  -1.966  1.00  0.00    -0.340 N 
ATOM      9  C   UNL     1     -17.360  33.588  -1.185  1.00  0.00     0.049 A 
ATOM     10  C   UNL     1     -15.799  32.421  -2.310  1.00  0.00     0.054 A 
ATOM     11  C   UNL     1     -17.674  32.223  -1.050  1.00  0.00     0.004 A 
ATOM     12  C   UNL     1     -18.152  34.592  -0.636  1.00  0.00     0.027 A 
ATOM     13  C   UNL     1     -16.676  31.487  -1.761  1.00  0.00    -0.014 A 
ATOM     14  C   UNL     1     -18.813  31.858  -0.324  1.00  0.00     0.021 A 
ATOM     15  C   UNL     1     -19.259  34.194   0.081  1.00  0.00     0.012 A 
BRANCH   8  16
ATOM     16  C   UNL     1     -15.585  34.970  -2.272  1.00  0.00     0.119 C 
ATOM     17  C   UNL     1     -16.458  35.775  -3.192  1.00  0.00     0.027 C 
ENDBRANCH   8  16
BRANCH  10  18
ATOM     18  C   UNL     1     -14.573  32.143  -3.063  1.00  0.00     0.025 A 
ATOM     19  C   UNL     1     -14.414  32.483  -4.427  1.00  0.00     0.078 A 
ATOM     20  C   UNL     1     -13.527  31.501  -2.405  1.00  0.00     0.039 A 
ATOM     21  N   UNL     1     -13.280  32.197  -5.080  1.00  0.00    -0.256 NA
ATOM     22  C   UNL     1     -12.367  31.199  -3.101  1.00  0.00     0.056 A 
ATOM     23  C   UNL     1     -12.279  31.575  -4.432  1.00  0.00     0.137 A 
BRANCH  19  24
ATOM     24  C   UNL     1     -15.494  33.173  -5.242  1.00  0.00     0.164 C 
ATOM     25  C   UNL     1     -16.357  32.129  -5.918  1.00  0.00     0.045 C 
BRANCH  24  26
ATOM     26  O   UNL     1     -14.850  33.947  -6.253  1.00  0.00    -0.375 OA
ATOM     27  C   UNL     1     -15.494  33.885  -7.516  1.00  0.00     0.195 C 
ENDBRANCH  24  26
ENDBRANCH  19  24
BRANCH  22  28
ATOM     28  N   UNL     1     -11.303  30.582  -2.467  1.00  0.00    -0.368 N 
ATOM     29  C   UNL     1     -10.390  29.675  -3.179  1.00  0.00     0.132 C 
ATOM     30  C   UNL     1     -10.927  30.942  -1.096  1.00  0.00     0.132 C 
ATOM     31  C   UNL     1      -9.805  28.603  -2.286  1.00  0.00     0.105 C 
ATOM     32  C   UNL     1     -10.338  29.787  -0.321  1.00  0.00     0.105 C 
ATOM     33  N   UNL     1      -9.242  29.184  -1.070  1.00  0.00    -0.303 NA
ATOM     34  C   UNL     1      -8.572  28.164  -0.262  1.00  0.00     0.105 C 
ENDBRANCH  22  28
ENDBRANCH  10  18
BRANCH  13  35
ATOM     35  C   UNL     1     -16.581  29.991  -1.857  1.00  0.00     0.048 C 
BRANCH  35  36
ATOM     36  C   UNL     1     -17.447  29.348  -2.950  1.00  0.00     0.003 CG0
ATOM     37  C   UNL     1     -16.488  28.716  -3.960  1.00  0.00     0.015 C 
ATOM     38  C   UNL     1     -18.294  30.400  -3.673  1.00  0.00     0.015 C 
ATOM     39  G   UNL     1     -18.367  28.278  -2.369  1.00  0.00     0.000 G0
ENDBRANCH  35  36
ENDBRANCH  13  35
ENDBRANCH   3   7
ENDBRANCH   1   2
BRANCH   1  40
ATOM     40  C   UNL     1     -21.948  30.023   4.561  1.00  0.00     0.179 C 
BRANCH  40  41
ATOM     41  C   UNL     1     -20.622  29.439   4.105  1.00  0.00     0.259 C 
ATOM     42  O   UNL     1     -19.549  29.863   4.517  1.00  0.00    -0.271 OA
BRANCH  41  43
ATOM     43  N   UNL     1     -20.654  28.451   3.156  1.00  0.00    -0.275 N 
ATOM     44  C   UNL     1     -20.648  27.012   3.462  1.00  0.00     0.140 C 
ATOM     45  N   UNL     1     -20.660  28.806   1.787  1.00  0.00    -0.218 NA
ATOM     46  C   UNL     1     -19.360  26.444   2.900  1.00  0.00     0.025 C 
ATOM     47  C   UNL     1     -19.453  28.266   1.140  1.00  0.00     0.184 C 
ATOM     48  C   UNL     1     -19.291  26.762   1.410  1.00  0.00     0.035 C 
ATOM     49  H   UNL     1     -21.498  28.414   1.333  1.00  0.00     0.149 HD
BRANCH  47  50
ATOM     50  C   UNL     1     -19.540  28.524  -0.344  1.00  0.00     0.324 C 
ATOM     51  O   UNL     1     -20.566  28.757  -0.937  1.00  0.00    -0.250 OA
BRANCH  50  52
ATOM     52  O   UNL     1     -18.338  28.454  -0.929  1.00  0.00    -0.464 OA
BRANCH  52  53
ATOM     53  C   UNL     1     -18.371  28.275  -2.374  1.00  0.00     0.239 CG0
ATOM     54  G   UNL     1     -17.463  29.359  -2.947  1.00  0.00     0.000 G0
ENDBRANCH  52  53
ENDBRANCH  50  52
ENDBRANCH  47  50
ENDBRANCH  41  43
ENDBRANCH  40  41
BRANCH  40  55
ATOM     55  N   UNL     1     -22.272  29.672   5.933  1.00  0.00    -0.344 N 
ATOM     56  C   UNL     1     -22.945  28.550   6.233  1.00  0.00     0.224 C 
ATOM     57  O   UNL     1     -23.556  27.899   5.390  1.00  0.00    -0.275 OA
ATOM     58  H   UNL     1     -21.978  30.300   6.694  1.00  0.00     0.164 HD
BRANCH  56  59
ATOM     59  C   UNL     1     -22.838  28.079   7.628  1.00  0.00     0.081 C 
ATOM     60  C   UNL     1     -23.085  29.093   8.710  1.00  0.00     0.018 C 
ATOM     61  C   UNL     1     -24.104  28.041   8.471  1.00  0.00    -0.001 C 
ATOM     62  C   UNL     1     -24.335  26.939   9.483  1.00  0.00     0.008 C 
ENDBRANCH  56  59
ENDBRANCH  40  55
ENDBRANCH   1  40
TORSDOF 7
ENDMDL
MODEL 5
REMARK VINA RESULT:    -7.153      2.674      9.499
REMARK INTER + INTRA:         -17.705
REMARK INTER:                 -13.561
REMARK INTRA:                  -4.144
REMARK UNBOUND:                -3.444
REMARK SMILES CCn1c(-c2cc(N3CCN(C)CC3)cnc2[C@H](C)OC)c2c3cc(ccc31)-c1csc(n1)C[C@H](NC(=O)[C@H]1C[C@@H]1C)C(=O)N1CCC[C@H](N1)C(=O)OCC(C)(C)C2
REMARK SMILES IDX 34 1 32 2 29 3 30 4 33 5 31 6 25 7 3 8 28 9 4 10 23 11 27 12
REMARK SMILES IDX 22 13 24 14 26 15 2 16 1 17 5 18 17 19 6 20 16 21 7 22 15 23
REMARK SMILES IDX 18 24 19 25 20 26 21 27 8 28 14 29 9 30 13 31 10 32 11 33
REMARK SMILES IDX 12 34 58 35 55 36 56 37 57 38 35 40 43 41 44 42 45 43 46 44
REMARK SMILES IDX 50 45 47 46 49 47 48 48 51 50 52 51 53 52 54 53 36 55 37 56
REMARK SMILES IDX 38 57 39 59 40 60 41 61 42 62
REMARK H PARENT 50 49 36 58
REMARK Flexibility Score:  160.900
ROOT
ATOM      1  C   UNL     1     -23.968  26.508  -1.109  1.00  0.00     0.102 C 
ENDROOT
BRANCH   1   2
ATOM      2  C   UNL     1     -23.012  26.320  -2.245  1.00  0.00     0.096 A 
ATOM      3  C   UNL     1     -21.203  26.588  -3.487  1.00  0.00     0.081 A 
ATOM      4  C   UNL     1     -21.829  25.667  -4.257  1.00  0.00     0.095 A 
ATOM      5  N   UNL     1     -21.920  27.016  -2.375  1.00  0.00    -0.241 NA
ATOM      6  S   UNL     1     -23.251  25.130  -3.477  1.00  0.00    -0.127 S 
BRANCH   3   7
ATOM      7  C   UNL     1     -19.866  27.181  -3.686  1.00  0.00     0.002 A 
ATOM      8  N   UNL     1     -16.116  28.854  -4.038  1.00  0.00    -0.340 N 
ATOM      9  C   UNL     1     -17.345  28.226  -4.086  1.00  0.00     0.049 A 
ATOM     10  C   UNL     1     -16.062  29.648  -2.906  1.00  0.00     0.054 A 
ATOM     11  C   UNL     1     -18.077  28.611  -2.948  1.00  0.00     0.004 A 
ATOM     12  C   UNL     1     -17.838  27.317  -5.017  1.00  0.00     0.027 A 
ATOM     13  C   UNL     1     -17.261  29.519  -2.206  1.00  0.00    -0.014 A 
ATOM     14  C   UNL     1     -19.355  28.075  -2.752  1.00  0.00     0.021 A 
ATOM     15  C   UNL     1     -19.103  26.819  -4.795  1.00  0.00     0.012 A 
BRANCH   8  16
ATOM     16  C   UNL     1     -15.112  28.721  -5.092  1.00  0.00     0.119 C 
ATOM     17  C   UNL     1     -15.059  29.977  -5.913  1.00  0.00     0.027 C 
ENDBRANCH   8  16
BRANCH  10  18
ATOM     18  C   UNL     1     -14.939  30.530  -2.574  1.00  0.00     0.025 A 
ATOM     19  C   UNL     1     -14.992  31.934  -2.729  1.00  0.00     0.078 A 
ATOM     20  C   UNL     1     -13.764  29.951  -2.099  1.00  0.00     0.039 A 
ATOM     21  N   UNL     1     -13.936  32.701  -2.426  1.00  0.00    -0.256 NA
ATOM     22  C   UNL     1     -12.677  30.758  -1.806  1.00  0.00     0.056 A 
ATOM     23  C   UNL     1     -12.808  32.128  -1.972  1.00  0.00     0.137 A 
BRANCH  19  24
ATOM     24  C   UNL     1     -16.217  32.667  -3.249  1.00  0.00     0.164 C 
ATOM     25  C   UNL     1     -15.870  33.370  -4.544  1.00  0.00     0.045 C 
BRANCH  24  26
ATOM     26  O   UNL     1     -16.577  33.654  -2.283  1.00  0.00    -0.375 OA
ATOM     27  C   UNL     1     -17.040  34.868  -2.855  1.00  0.00     0.195 C 
ENDBRANCH  24  26
ENDBRANCH  19  24
BRANCH  22  28
ATOM     28  N   UNL     1     -11.505  30.213  -1.312  1.00  0.00    -0.368 N 
ATOM     29  C   UNL     1     -10.181  30.672  -1.760  1.00  0.00     0.132 C 
ATOM     30  C   UNL     1     -11.523  29.274  -0.185  1.00  0.00     0.132 C 
ATOM     31  C   UNL     1      -9.130  29.585  -1.708  1.00  0.00     0.105 C 
ATOM     32  C   UNL     1     -10.410  28.255  -0.245  1.00  0.00     0.105 C 
ATOM     33  N   UNL     1      -9.123  28.923  -0.407  1.00  0.00    -0.303 NA
ATOM     34  C   UNL     1      -8.030  27.954  -0.315  1.00  0.00     0.105 C 
ENDBRANCH  22  28
ENDBRANCH  10  18
BRANCH  13  35
ATOM     35  C   UNL     1     -17.648  30.221  -0.936  1.00  0.00     0.048 C 
BRANCH  35  36
ATOM     36  C   UNL     1     -17.371  29.439   0.357  1.00  0.00     0.003 CG0
ATOM     37  C   UNL     1     -15.969  29.835   0.822  1.00  0.00     0.015 C 
ATOM     38  C   UNL     1     -17.393  27.929   0.102  1.00  0.00     0.015 C 
ATOM     39  G   UNL     1     -18.392  29.780   1.438  1.00  0.00     0.000 G0
ENDBRANCH  35  36
ENDBRANCH  13  35
ENDBRANCH   3   7
ENDBRANCH   1   2
BRANCH   1  40
ATOM     40  C   UNL     1     -23.456  27.572  -0.126  1.00  0.00     0.179 C 
BRANCH  40  41
ATOM     41  C   UNL     1     -24.374  28.782  -0.177  1.00  0.00     0.259 C 
ATOM     42  O   UNL     1     -25.555  28.691  -0.491  1.00  0.00    -0.271 OA
BRANCH  41  43
ATOM     43  N   UNL     1     -23.823  30.010   0.081  1.00  0.00    -0.275 N 
ATOM     44  C   UNL     1     -24.230  31.255  -0.591  1.00  0.00     0.140 C 
ATOM     45  N   UNL     1     -22.772  30.114   1.022  1.00  0.00    -0.218 NA
ATOM     46  C   UNL     1     -23.034  31.742  -1.384  1.00  0.00     0.025 C 
ATOM     47  C   UNL     1     -21.564  30.616   0.348  1.00  0.00     0.184 C 
ATOM     48  C   UNL     1     -21.849  31.906  -0.437  1.00  0.00     0.035 C 
ATOM     49  H   UNL     1     -23.044  30.767   1.771  1.00  0.00     0.149 HD
BRANCH  47  50
ATOM     50  C   UNL     1     -20.495  30.860   1.384  1.00  0.00     0.324 C 
ATOM     51  O   UNL     1     -20.715  31.097   2.548  1.00  0.00    -0.250 OA
BRANCH  50  52
ATOM     52  O   UNL     1     -19.269  30.793   0.853  1.00  0.00    -0.464 OA
BRANCH  52  53
ATOM     53  C   UNL     1     -18.406  29.771   1.432  1.00  0.00     0.239 CG0
ATOM     54  G   UNL     1     -17.382  29.433   0.353  1.00  0.00     0.000 G0
ENDBRANCH  52  53
ENDBRANCH  50  52
ENDBRANCH  47  50
ENDBRANCH  41  43
ENDBRANCH  40  41
BRANCH  40  55
ATOM     55  N   UNL     1     -23.300  27.044   1.218  1.00  0.00    -0.344 N 
ATOM     56  C   UNL     1     -22.113  27.057   1.845  1.00  0.00     0.224 C 
ATOM     57  O   UNL     1     -21.054  27.253   1.255  1.00  0.00    -0.275 OA
ATOM     58  H   UNL     1     -24.119  26.651   1.701  1.00  0.00     0.164 HD
BRANCH  56  59
ATOM     59  C   UNL     1     -22.151  26.913   3.314  1.00  0.00     0.081 C 
ATOM     60  C   UNL     1     -20.852  27.086   4.050  1.00  0.00     0.018 C 
ATOM     61  C   UNL     1     -21.882  28.148   4.163  1.00  0.00    -0.001 C 
ATOM     62  C   UNL     1     -22.622  28.377   5.463  1.00  0.00     0.008 C 
ENDBRANCH  56  59
ENDBRANCH  40  55
ENDBRANCH   1  40
TORSDOF 7
ENDMDL
MODEL 6
REMARK VINA RESULT:    -7.138      2.565      9.132
REMARK INTER + INTRA:         -17.676
REMARK INTER:                 -13.579
REMARK INTRA:                  -4.097
REMARK UNBOUND:                -3.444
REMARK SMILES CCn1c(-c2cc(N3CCN(C)CC3)cnc2[C@H](C)OC)c2c3cc(ccc31)-c1csc(n1)C[C@H](NC(=O)[C@H]1C[C@@H]1C)C(=O)N1CCC[C@H](N1)C(=O)OCC(C)(C)C2
REMARK SMILES IDX 34 1 32 2 29 3 30 4 33 5 31 6 25 7 3 8 28 9 4 10 23 11 27 12
REMARK SMILES IDX 22 13 24 14 26 15 2 16 1 17 5 18 17 19 6 20 16 21 7 22 15 23
REMARK SMILES IDX 18 24 19 25 20 26 21 27 8 28 14 29 9 30 13 31 10 32 11 33
REMARK SMILES IDX 12 34 58 35 55 36 56 37 57 38 35 40 43 41 44 42 45 43 46 44
REMARK SMILES IDX 50 45 47 46 49 47 48 48 51 50 52 51 53 52 54 53 36 55 37 56
REMARK SMILES IDX 38 57 39 59 40 60 41 61 42 62
REMARK H PARENT 50 49 36 58
REMARK Flexibility Score:  160.900
ROOT
ATOM      1  C   UNL     1     -23.651  25.934  -0.094  1.00  0.00     0.102 C 
ENDROOT
BRANCH   1   2
ATOM      2  C   UNL     1     -22.955  26.251  -1.381  1.00  0.00     0.096 A 
ATOM      3  C   UNL     1     -21.388  26.994  -2.751  1.00  0.00     0.081 A 
ATOM      4  C   UNL     1     -22.260  26.545  -3.684  1.00  0.00     0.095 A 
ATOM      5  N   UNL     1     -21.824  26.894  -1.435  1.00  0.00    -0.241 NA
ATOM      6  S   UNL     1     -23.572  25.759  -2.919  1.00  0.00    -0.127 S 
BRANCH   3   7
ATOM      7  C   UNL     1     -20.045  27.568  -2.966  1.00  0.00     0.002 A 
ATOM      8  N   UNL     1     -16.263  29.160  -3.362  1.00  0.00    -0.340 N 
ATOM      9  C   UNL     1     -17.517  28.582  -3.405  1.00  0.00     0.049 A 
ATOM     10  C   UNL     1     -16.100  29.787  -2.139  1.00  0.00     0.054 A 
ATOM     11  C   UNL     1     -18.154  28.827  -2.174  1.00  0.00     0.004 A 
ATOM     12  C   UNL     1     -18.109  27.826  -4.411  1.00  0.00     0.027 A 
ATOM     13  C   UNL     1     -17.252  29.598  -1.378  1.00  0.00    -0.014 A 
ATOM     14  C   UNL     1     -19.435  28.307  -1.958  1.00  0.00     0.021 A 
ATOM     15  C   UNL     1     -19.375  27.340  -4.167  1.00  0.00     0.012 A 
BRANCH   8  16
ATOM     16  C   UNL     1     -15.341  29.143  -4.495  1.00  0.00     0.119 C 
ATOM     17  C   UNL     1     -15.424  30.442  -5.245  1.00  0.00     0.027 C 
ENDBRANCH   8  16
BRANCH  10  18
ATOM     18  C   UNL     1     -14.922  30.580  -1.774  1.00  0.00     0.025 A 
ATOM     19  C   UNL     1     -14.900  31.992  -1.826  1.00  0.00     0.078 A 
ATOM     20  C   UNL     1     -13.772  29.904  -1.373  1.00  0.00     0.039 A 
ATOM     21  N   UNL     1     -13.797  32.677  -1.496  1.00  0.00    -0.256 NA
ATOM     22  C   UNL     1     -12.635  30.628  -1.051  1.00  0.00     0.056 A 
ATOM     23  C   UNL     1     -12.692  32.011  -1.114  1.00  0.00     0.137 A 
BRANCH  19  24
ATOM     24  C   UNL     1     -16.093  32.826  -2.260  1.00  0.00     0.164 C 
ATOM     25  C   UNL     1     -15.706  33.675  -3.452  1.00  0.00     0.045 C 
BRANCH  24  26
ATOM     26  O   UNL     1     -16.434  33.695  -1.180  1.00  0.00    -0.375 OA
ATOM     27  C   UNL     1     -16.681  35.034  -1.582  1.00  0.00     0.195 C 
ENDBRANCH  24  26
ENDBRANCH  19  24
BRANCH  22  28
ATOM     28  N   UNL     1     -11.485  29.985  -0.628  1.00  0.00    -0.368 N 
ATOM     29  C   UNL     1     -10.328  30.723  -0.098  1.00  0.00     0.132 C 
ATOM     30  C   UNL     1     -11.431  28.523  -0.520  1.00  0.00     0.132 C 
ATOM     31  C   UNL     1      -9.011  30.028  -0.363  1.00  0.00     0.105 C 
ATOM     32  C   UNL     1     -10.055  27.960  -0.789  1.00  0.00     0.105 C 
ATOM     33  N   UNL     1      -9.065  28.628   0.048  1.00  0.00    -0.303 NA
ATOM     34  C   UNL     1      -7.757  27.986  -0.097  1.00  0.00     0.105 C 
ENDBRANCH  22  28
ENDBRANCH  10  18
BRANCH  13  35
ATOM     35  C   UNL     1     -17.523  30.129   0.002  1.00  0.00     0.048 C 
BRANCH  35  36
ATOM     36  C   UNL     1     -17.254  29.142   1.148  1.00  0.00     0.003 CG0
ATOM     37  C   UNL     1     -15.744  29.147   1.392  1.00  0.00     0.015 C 
ATOM     38  C   UNL     1     -17.683  27.722   0.766  1.00  0.00     0.015 C 
ATOM     39  G   UNL     1     -17.986  29.561   2.420  1.00  0.00     0.000 G0
ENDBRANCH  35  36
ENDBRANCH  13  35
ENDBRANCH   3   7
ENDBRANCH   1   2
BRANCH   1  40
ATOM     40  C   UNL     1     -24.181  27.210   0.577  1.00  0.00     0.179 C 
BRANCH  40  41
ATOM     41  C   UNL     1     -23.826  27.183   2.054  1.00  0.00     0.259 C 
ATOM     42  O   UNL     1     -24.681  27.234   2.930  1.00  0.00    -0.271 OA
BRANCH  41  43
ATOM     43  N   UNL     1     -22.497  27.162   2.388  1.00  0.00    -0.275 N 
ATOM     44  C   UNL     1     -21.831  26.034   3.058  1.00  0.00     0.140 C 
ATOM     45  N   UNL     1     -21.697  28.296   2.115  1.00  0.00    -0.218 NA
ATOM     46  C   UNL     1     -21.372  26.531   4.415  1.00  0.00     0.025 C 
ATOM     47  C   UNL     1     -21.173  28.837   3.379  1.00  0.00     0.184 C 
ATOM     48  C   UNL     1     -20.477  27.750   4.215  1.00  0.00     0.035 C 
ATOM     49  H   UNL     1     -20.912  28.025   1.505  1.00  0.00     0.149 HD
BRANCH  47  50
ATOM     50  C   UNL     1     -20.208  29.954   3.068  1.00  0.00     0.324 C 
ATOM     51  O   UNL     1     -20.179  31.013   3.648  1.00  0.00    -0.250 OA
BRANCH  50  52
ATOM     52  O   UNL     1     -19.390  29.632   2.058  1.00  0.00    -0.464 OA
BRANCH  52  53
ATOM     53  C   UNL     1     -17.979  29.559   2.413  1.00  0.00     0.239 CG0
ATOM     54  G   UNL     1     -17.252  29.135   1.141  1.00  0.00     0.000 G0
ENDBRANCH  52  53
ENDBRANCH  50  52
ENDBRANCH  47  50
ENDBRANCH  41  43
ENDBRANCH  40  41
BRANCH  40  55
ATOM     55  N   UNL     1     -23.713  28.412  -0.090  1.00  0.00    -0.344 N 
ATOM     56  C   UNL     1     -24.430  29.548  -0.080  1.00  0.00     0.224 C 
ATOM     57  O   UNL     1     -25.614  29.580   0.242  1.00  0.00    -0.275 OA
ATOM     58  H   UNL     1     -22.809  28.394  -0.581  1.00  0.00     0.164 HD
BRANCH  56  59
ATOM     59  C   UNL     1     -23.691  30.787  -0.391  1.00  0.00     0.081 C 
ATOM     60  C   UNL     1     -23.275  31.642   0.774  1.00  0.00     0.018 C 
ATOM     61  C   UNL     1     -22.234  30.880   0.041  1.00  0.00    -0.001 C 
ATOM     62  C   UNL     1     -21.210  31.592  -0.818  1.00  0.00     0.008 C 
ENDBRANCH  56  59
ENDBRANCH  40  55
ENDBRANCH   1  40
TORSDOF 7
ENDMDL
MODEL 7
REMARK VINA RESULT:    -7.106      3.160      9.989
REMARK INTER + INTRA:         -17.612
REMARK INTER:                 -14.245
REMARK INTRA:                  -3.366
REMARK UNBOUND:                -3.444
REMARK SMILES CCn1c(-c2cc(N3CCN(C)CC3)cnc2[C@H](C)OC)c2c3cc(ccc31)-c1csc(n1)C[C@H](NC(=O)[C@H]1C[C@@H]1C)C(=O)N1CCC[C@H](N1)C(=O)OCC(C)(C)C2
REMARK SMILES IDX 34 1 32 2 29 3 30 4 33 5 31 6 25 7 3 8 28 9 4 10 23 11 27 12
REMARK SMILES IDX 22 13 24 14 26 15 2 16 1 17 5 18 17 19 6 20 16 21 7 22 15 23
REMARK SMILES IDX 18 24 19 25 20 26 21 27 8 28 14 29 9 30 13 31 10 32 11 33
REMARK SMILES IDX 12 34 58 35 55 36 56 37 57 38 35 40 43 41 44 42 45 43 46 44
REMARK SMILES IDX 50 45 47 46 49 47 48 48 51 50 52 51 53 52 54 53 36 55 37 56
REMARK SMILES IDX 38 57 39 59 40 60 41 61 42 62
REMARK H PARENT 50 49 36 58
REMARK Flexibility Score:  160.900
ROOT
ATOM      1  C   UNL     1     -24.835  28.690  -0.475  1.00  0.00     0.102 C 
ENDROOT
BRANCH   1   2
ATOM      2  C   UNL     1     -24.208  30.046  -0.390  1.00  0.00     0.096 A 
ATOM      3  C   UNL     1     -22.633  31.598  -0.402  1.00  0.00     0.081 A 
ATOM      4  C   UNL     1     -23.696  32.405  -0.172  1.00  0.00     0.095 A 
ATOM      5  N   UNL     1     -22.923  30.238  -0.449  1.00  0.00    -0.241 NA
ATOM      6  S   UNL     1     -25.141  31.495  -0.243  1.00  0.00    -0.127 S 
BRANCH   3   7
ATOM      7  C   UNL     1     -21.225  31.987  -0.607  1.00  0.00     0.002 A 
ATOM      8  N   UNL     1     -17.306  33.011  -1.375  1.00  0.00    -0.340 N 
ATOM      9  C   UNL     1     -18.610  32.784  -0.978  1.00  0.00     0.049 A 
ATOM     10  C   UNL     1     -16.978  32.110  -2.373  1.00  0.00     0.054 A 
ATOM     11  C   UNL     1     -19.127  31.732  -1.757  1.00  0.00     0.004 A 
ATOM     12  C   UNL     1     -19.377  33.457  -0.033  1.00  0.00     0.027 A 
ATOM     13  C   UNL     1     -18.084  31.304  -2.635  1.00  0.00    -0.014 A 
ATOM     14  C   UNL     1     -20.455  31.335  -1.564  1.00  0.00     0.021 A 
ATOM     15  C   UNL     1     -20.677  33.031   0.137  1.00  0.00     0.012 A 
BRANCH   8  16
ATOM     16  C   UNL     1     -16.444  34.006  -0.741  1.00  0.00     0.119 C 
ATOM     17  C   UNL     1     -16.951  35.388  -1.038  1.00  0.00     0.027 C 
ENDBRANCH   8  16
BRANCH  10  18
ATOM     18  C   UNL     1     -15.645  32.000  -2.973  1.00  0.00     0.025 A 
ATOM     19  C   UNL     1     -15.265  32.707  -4.137  1.00  0.00     0.078 A 
ATOM     20  C   UNL     1     -14.721  31.149  -2.373  1.00  0.00     0.039 A 
ATOM     21  N   UNL     1     -14.039  32.567  -4.659  1.00  0.00    -0.256 NA
ATOM     22  C   UNL     1     -13.463  31.003  -2.936  1.00  0.00     0.056 A 
ATOM     23  C   UNL     1     -13.158  31.739  -4.071  1.00  0.00     0.137 A 
BRANCH  19  24
ATOM     24  C   UNL     1     -16.198  33.652  -4.876  1.00  0.00     0.164 C 
ATOM     25  C   UNL     1     -15.770  33.749  -6.324  1.00  0.00     0.045 C 
BRANCH  24  26
ATOM     26  O   UNL     1     -16.071  34.943  -4.282  1.00  0.00    -0.375 OA
ATOM     27  C   UNL     1     -17.062  35.866  -4.707  1.00  0.00     0.195 C 
ENDBRANCH  24  26
ENDBRANCH  19  24
BRANCH  22  28
ATOM     28  N   UNL     1     -12.517  30.181  -2.350  1.00  0.00    -0.368 N 
ATOM     29  C   UNL     1     -12.091  30.354  -0.952  1.00  0.00     0.132 C 
ATOM     30  C   UNL     1     -12.023  28.984  -3.039  1.00  0.00     0.132 C 
ATOM     31  C   UNL     1     -10.662  29.920  -0.711  1.00  0.00     0.105 C 
ATOM     32  C   UNL     1     -10.591  28.651  -2.695  1.00  0.00     0.105 C 
ATOM     33  N   UNL     1     -10.422  28.583  -1.248  1.00  0.00    -0.303 NA
ATOM     34  C   UNL     1      -9.076  28.115  -0.912  1.00  0.00     0.105 C 
ENDBRANCH  22  28
ENDBRANCH  10  18
BRANCH  13  35
ATOM     35  C   UNL     1     -18.167  30.174  -3.623  1.00  0.00     0.048 C 
BRANCH  35  36
ATOM     36  C   UNL     1     -17.905  28.776  -3.043  1.00  0.00     0.003 CG0
ATOM     37  C   UNL     1     -16.555  28.315  -3.593  1.00  0.00     0.015 C 
ATOM     38  C   UNL     1     -18.980  27.782  -3.491  1.00  0.00     0.015 C 
ATOM     39  G   UNL     1     -17.858  28.811  -1.518  1.00  0.00     0.000 G0
ENDBRANCH  35  36
ENDBRANCH  13  35
ENDBRANCH   3   7
ENDBRANCH   1   2
BRANCH   1  40
ATOM     40  C   UNL     1     -23.778  27.583  -0.338  1.00  0.00     0.179 C 
BRANCH  40  41
ATOM     41  C   UNL     1     -23.626  27.216   1.128  1.00  0.00     0.259 C 
ATOM     42  O   UNL     1     -24.557  26.767   1.786  1.00  0.00    -0.271 OA
BRANCH  41  43
ATOM     43  N   UNL     1     -22.416  27.462   1.724  1.00  0.00    -0.275 N 
ATOM     44  C   UNL     1     -22.255  28.178   2.999  1.00  0.00     0.140 C 
ATOM     45  N   UNL     1     -21.229  27.041   1.080  1.00  0.00    -0.218 NA
ATOM     46  C   UNL     1     -21.495  29.454   2.697  1.00  0.00     0.025 C 
ATOM     47  C   UNL     1     -20.401  28.219   0.772  1.00  0.00     0.184 C 
ATOM     48  C   UNL     1     -20.178  29.094   2.016  1.00  0.00     0.035 C 
ATOM     49  H   UNL     1     -20.707  26.406   1.700  1.00  0.00     0.149 HD
BRANCH  47  50
ATOM     50  C   UNL     1     -19.078  27.752   0.219  1.00  0.00     0.324 C 
ATOM     51  O   UNL     1     -18.197  27.259   0.883  1.00  0.00    -0.250 OA
BRANCH  50  52
ATOM     52  O   UNL     1     -18.993  27.960  -1.100  1.00  0.00    -0.464 OA
BRANCH  52  53
ATOM     53  C   UNL     1     -17.863  28.778  -1.519  1.00  0.00     0.239 CG0
ATOM     54  G   UNL     1     -17.899  28.787  -3.044  1.00  0.00     0.000 G0
ENDBRANCH  52  53
ENDBRANCH  50  52
ENDBRANCH  47  50
ENDBRANCH  41  43
ENDBRANCH  40  41
BRANCH  40  55
ATOM     55  N   UNL     1     -24.078  26.435  -1.175  1.00  0.00    -0.344 N 
ATOM     56  C   UNL     1     -23.319  26.120  -2.238  1.00  0.00     0.224 C 
ATOM     57  O   UNL     1     -22.511  26.903  -2.728  1.00  0.00    -0.275 OA
ATOM     58  H   UNL     1     -24.892  25.847  -0.948  1.00  0.00     0.164 HD
BRANCH  56  59
ATOM     59  C   UNL     1     -23.441  24.737  -2.737  1.00  0.00     0.081 C 
ATOM     60  C   UNL     1     -24.803  24.105  -2.669  1.00  0.00     0.018 C 
ATOM     61  C   UNL     1     -24.265  24.498  -3.995  1.00  0.00    -0.001 C 
ATOM     62  C   UNL     1     -23.855  23.451  -5.009  1.00  0.00     0.008 C 
ENDBRANCH  56  59
ENDBRANCH  40  55
ENDBRANCH   1  40
TORSDOF 7
ENDMDL
MODEL 8
REMARK VINA RESULT:    -7.094      3.032     10.289
REMARK INTER + INTRA:         -17.589
REMARK INTER:                 -13.800
REMARK INTRA:                  -3.789
REMARK UNBOUND:                -3.444
REMARK SMILES CCn1c(-c2cc(N3CCN(C)CC3)cnc2[C@H](C)OC)c2c3cc(ccc31)-c1csc(n1)C[C@H](NC(=O)[C@H]1C[C@@H]1C)C(=O)N1CCC[C@H](N1)C(=O)OCC(C)(C)C2
REMARK SMILES IDX 34 1 32 2 29 3 30 4 33 5 31 6 25 7 3 8 28 9 4 10 23 11 27 12
REMARK SMILES IDX 22 13 24 14 26 15 2 16 1 17 5 18 17 19 6 20 16 21 7 22 15 23
REMARK SMILES IDX 18 24 19 25 20 26 21 27 8 28 14 29 9 30 13 31 10 32 11 33
REMARK SMILES IDX 12 34 58 35 55 36 56 37 57 38 35 40 43 41 44 42 45 43 46 44
REMARK SMILES IDX 50 45 47 46 49 47 48 48 51 50 52 51 53 52 54 53 36 55 37 56
REMARK SMILES IDX 38 57 39 59 40 60 41 61 42 62
REMARK H PARENT 50 49 36 58
REMARK Flexibility Score:  160.900
ROOT
ATOM      1  C   UNL     1     -24.263  30.297   2.801  1.00  0.00     0.102 C 
ENDROOT
BRANCH   1   2
ATOM      2  C   UNL     1     -23.760  30.982   1.569  1.00  0.00     0.096 A 
ATOM      3  C   UNL     1     -22.333  31.915   0.162  1.00  0.00     0.081 A 
ATOM      4  C   UNL     1     -23.457  32.069  -0.576  1.00  0.00     0.095 A 
ATOM      5  N   UNL     1     -22.523  31.361   1.423  1.00  0.00    -0.241 NA
ATOM      6  S   UNL     1     -24.771  31.301   0.202  1.00  0.00    -0.127 S 
BRANCH   3   7
ATOM      7  C   UNL     1     -20.947  32.260  -0.211  1.00  0.00     0.002 A 
ATOM      8  N   UNL     1     -17.114  33.146  -1.442  1.00  0.00    -0.340 N 
ATOM      9  C   UNL     1     -18.374  32.975  -0.902  1.00  0.00     0.049 A 
ATOM     10  C   UNL     1     -16.897  32.165  -2.394  1.00  0.00     0.054 A 
ATOM     11  C   UNL     1     -18.978  31.877  -1.540  1.00  0.00     0.004 A 
ATOM     12  C   UNL     1     -19.035  33.734   0.059  1.00  0.00     0.027 A 
ATOM     13  C   UNL     1     -18.034  31.362  -2.481  1.00  0.00    -0.014 A 
ATOM     14  C   UNL     1     -20.285  31.522  -1.186  1.00  0.00     0.021 A 
ATOM     15  C   UNL     1     -20.315  33.348   0.390  1.00  0.00     0.012 A 
BRANCH   8  16
ATOM     16  C   UNL     1     -16.181  34.170  -0.977  1.00  0.00     0.119 C 
ATOM     17  C   UNL     1     -16.230  35.361  -1.890  1.00  0.00     0.027 C 
ENDBRANCH   8  16
BRANCH  10  18
ATOM     18  C   UNL     1     -15.633  31.983  -3.113  1.00  0.00     0.025 A 
ATOM     19  C   UNL     1     -15.449  32.378  -4.458  1.00  0.00     0.078 A 
ATOM     20  C   UNL     1     -14.573  31.382  -2.439  1.00  0.00     0.039 A 
ATOM     21  N   UNL     1     -14.280  32.181  -5.080  1.00  0.00    -0.256 NA
ATOM     22  C   UNL     1     -13.375  31.171  -3.104  1.00  0.00     0.056 A 
ATOM     23  C   UNL     1     -13.266  31.596  -4.419  1.00  0.00     0.137 A 
BRANCH  19  24
ATOM     24  C   UNL     1     -16.542  33.031  -5.288  1.00  0.00     0.164 C 
ATOM     25  C   UNL     1     -16.049  33.222  -6.706  1.00  0.00     0.045 C 
BRANCH  24  26
ATOM     26  O   UNL     1     -16.805  34.317  -4.726  1.00  0.00    -0.375 OA
ATOM     27  C   UNL     1     -16.548  35.392  -5.618  1.00  0.00     0.195 C 
ENDBRANCH  24  26
ENDBRANCH  19  24
BRANCH  22  28
ATOM     28  N   UNL     1     -12.298  30.596  -2.453  1.00  0.00    -0.368 N 
ATOM     29  C   UNL     1     -10.954  30.559  -3.051  1.00  0.00     0.132 C 
ATOM     30  C   UNL     1     -12.404  30.153  -1.058  1.00  0.00     0.132 C 
ATOM     31  C   UNL     1     -10.143  29.360  -2.610  1.00  0.00     0.105 C 
ATOM     32  C   UNL     1     -11.529  28.962  -0.747  1.00  0.00     0.105 C 
ATOM     33  N   UNL     1     -10.154  29.226  -1.156  1.00  0.00    -0.303 NA
ATOM     34  C   UNL     1      -9.275  28.139  -0.722  1.00  0.00     0.105 C 
ENDBRANCH  22  28
ENDBRANCH  10  18
BRANCH  13  35
ATOM     35  C   UNL     1     -18.229  30.162  -3.364  1.00  0.00     0.048 C 
BRANCH  35  36
ATOM     36  C   UNL     1     -17.985  28.804  -2.687  1.00  0.00     0.003 CG0
ATOM     37  C   UNL     1     -17.128  29.074  -1.450  1.00  0.00     0.015 C 
ATOM     38  C   UNL     1     -17.220  27.855  -3.614  1.00  0.00     0.015 C 
ATOM     39  G   UNL     1     -19.300  28.150  -2.274  1.00  0.00     0.000 G0
ENDBRANCH  35  36
ENDBRANCH  13  35
ENDBRANCH   3   7
ENDBRANCH   1   2
BRANCH   1  40
ATOM     40  C   UNL     1     -23.641  28.900   2.949  1.00  0.00     0.179 C 
BRANCH  40  41
ATOM     41  C   UNL     1     -22.399  28.995   3.819  1.00  0.00     0.259 C 
ATOM     42  O   UNL     1     -22.431  29.467   4.950  1.00  0.00    -0.271 OA
BRANCH  41  43
ATOM     43  N   UNL     1     -21.208  28.590   3.275  1.00  0.00    -0.275 N 
ATOM     44  C   UNL     1     -19.890  28.899   3.852  1.00  0.00     0.140 C 
ATOM     45  N   UNL     1     -21.213  27.856   2.067  1.00  0.00    -0.218 NA
ATOM     46  C   UNL     1     -19.164  29.778   2.853  1.00  0.00     0.025 C 
ATOM     47  C   UNL     1     -20.495  28.619   1.032  1.00  0.00     0.184 C 
ATOM     48  C   UNL     1     -19.100  29.050   1.513  1.00  0.00     0.035 C 
ATOM     49  H   UNL     1     -20.745  26.950   2.212  1.00  0.00     0.149 HD
BRANCH  47  50
ATOM     50  C   UNL     1     -20.381  27.768  -0.208  1.00  0.00     0.324 C 
ATOM     51  O   UNL     1     -21.230  26.997  -0.587  1.00  0.00    -0.250 OA
BRANCH  50  52
ATOM     52  O   UNL     1     -19.214  27.963  -0.834  1.00  0.00    -0.464 OA
BRANCH  52  53
ATOM     53  C   UNL     1     -19.317  28.152  -2.275  1.00  0.00     0.239 CG0
ATOM     54  G   UNL     1     -18.005  28.802  -2.704  1.00  0.00     0.000 G0
ENDBRANCH  52  53
ENDBRANCH  50  52
ENDBRANCH  47  50
ENDBRANCH  41  43
ENDBRANCH  40  41
BRANCH  40  55
ATOM     55  N   UNL     1     -24.598  27.926   3.443  1.00  0.00    -0.344 N 
ATOM     56  C   UNL     1     -24.505  26.624   3.127  1.00  0.00     0.224 C 
ATOM     57  O   UNL     1     -23.799  26.215   2.210  1.00  0.00    -0.275 OA
ATOM     58  H   UNL     1     -25.366  28.241   4.052  1.00  0.00     0.164 HD
BRANCH  56  59
ATOM     59  C   UNL     1     -25.233  25.687   4.005  1.00  0.00     0.081 C 
ATOM     60  C   UNL     1     -25.412  24.281   3.502  1.00  0.00     0.018 C 
ATOM     61  C   UNL     1     -24.459  24.526   4.613  1.00  0.00    -0.001 C 
ATOM     62  C   UNL     1     -24.758  24.038   6.015  1.00  0.00     0.008 C 
ENDBRANCH  56  59
ENDBRANCH  40  55
ENDBRANCH   1  40
TORSDOF 7
ENDMDL
MODEL 9
REMARK VINA RESULT:    -6.977      2.514      9.932
REMARK INTER + INTRA:         -17.355
REMARK INTER:                 -13.949
REMARK INTRA:                  -3.406
REMARK UNBOUND:                -3.444
REMARK SMILES CCn1c(-c2cc(N3CCN(C)CC3)cnc2[C@H](C)OC)c2c3cc(ccc31)-c1csc(n1)C[C@H](NC(=O)[C@H]1C[C@@H]1C)C(=O)N1CCC[C@H](N1)C(=O)OCC(C)(C)C2
REMARK SMILES IDX 34 1 32 2 29 3 30 4 33 5 31 6 25 7 3 8 28 9 4 10 23 11 27 12
REMARK SMILES IDX 22 13 24 14 26 15 2 16 1 17 5 18 17 19 6 20 16 21 7 22 15 23
REMARK SMILES IDX 18 24 19 25 20 26 21 27 8 28 14 29 9 30 13 31 10 32 11 33
REMARK SMILES IDX 12 34 58 35 55 36 56 37 57 38 35 40 43 41 44 42 45 43 46 44
REMARK SMILES IDX 50 45 47 46 49 47 48 48 51 50 52 51 53 52 54 53 36 55 37 56
REMARK SMILES IDX 38 57 39 59 40 60 41 61 42 62
REMARK H PARENT 50 49 36 58
REMARK Flexibility Score:  160.900
ROOT
ATOM      1  C   UNL     1     -23.476  25.992   0.835  1.00  0.00     0.102 C 
ENDROOT
BRANCH   1   2
ATOM      2  C   UNL     1     -22.881  26.274  -0.509  1.00  0.00     0.096 A 
ATOM      3  C   UNL     1     -21.498  27.101  -2.022  1.00  0.00     0.081 A 
ATOM      4  C   UNL     1     -22.315  26.422  -2.861  1.00  0.00     0.095 A 
ATOM      5  N   UNL     1     -21.871  27.077  -0.683  1.00  0.00    -0.241 NA
ATOM      6  S   UNL     1     -23.458  25.527  -1.958  1.00  0.00    -0.127 S 
BRANCH   3   7
ATOM      7  C   UNL     1     -20.273  27.853  -2.358  1.00  0.00     0.002 A 
ATOM      8  N   UNL     1     -16.785  29.918  -3.106  1.00  0.00    -0.340 N 
ATOM      9  C   UNL     1     -17.966  29.206  -3.035  1.00  0.00     0.049 A 
ATOM     10  C   UNL     1     -16.477  30.402  -1.846  1.00  0.00     0.054 A 
ATOM     11  C   UNL     1     -18.405  29.218  -1.698  1.00  0.00     0.004 A 
ATOM     12  C   UNL     1     -18.645  28.517  -4.035  1.00  0.00     0.027 A 
ATOM     13  C   UNL     1     -17.460  29.984  -0.950  1.00  0.00    -0.014 A 
ATOM     14  C   UNL     1     -19.575  28.527  -1.363  1.00  0.00     0.021 A 
ATOM     15  C   UNL     1     -19.798  27.858  -3.669  1.00  0.00     0.012 A 
BRANCH   8  16
ATOM     16  C   UNL     1     -16.071  30.153  -4.359  1.00  0.00     0.119 C 
ATOM     17  C   UNL     1     -16.397  31.520  -4.887  1.00  0.00     0.027 C 
ENDBRANCH   8  16
BRANCH  10  18
ATOM     18  C   UNL     1     -15.337  31.277  -1.559  1.00  0.00     0.025 A 
ATOM     19  C   UNL     1     -15.464  32.675  -1.387  1.00  0.00     0.078 A 
ATOM     20  C   UNL     1     -14.072  30.702  -1.466  1.00  0.00     0.039 A 
ATOM     21  N   UNL     1     -14.392  33.439  -1.139  1.00  0.00    -0.256 NA
ATOM     22  C   UNL     1     -12.972  31.509  -1.225  1.00  0.00     0.056 A 
ATOM     23  C   UNL     1     -13.176  32.870  -1.056  1.00  0.00     0.137 A 
BRANCH  19  24
ATOM     24  C   UNL     1     -16.793  33.406  -1.479  1.00  0.00     0.164 C 
ATOM     25  C   UNL     1     -16.737  34.409  -2.611  1.00  0.00     0.045 C 
BRANCH  24  26
ATOM     26  O   UNL     1     -16.984  34.117  -0.256  1.00  0.00    -0.375 OA
ATOM     27  C   UNL     1     -17.361  35.473  -0.439  1.00  0.00     0.195 C 
ENDBRANCH  24  26
ENDBRANCH  19  24
BRANCH  22  28
ATOM     28  N   UNL     1     -11.706  30.963  -1.107  1.00  0.00    -0.368 N 
ATOM     29  C   UNL     1     -11.130  30.095  -2.146  1.00  0.00     0.132 C 
ATOM     30  C   UNL     1     -10.806  31.367  -0.021  1.00  0.00     0.132 C 
ATOM     31  C   UNL     1     -10.162  29.073  -1.593  1.00  0.00     0.105 C 
ATOM     32  C   UNL     1      -9.879  30.260   0.422  1.00  0.00     0.105 C 
ATOM     33  N   UNL     1      -9.171  29.704  -0.725  1.00  0.00    -0.303 NA
ATOM     34  C   UNL     1      -8.164  28.737  -0.285  1.00  0.00     0.105 C 
ENDBRANCH  22  28
ENDBRANCH  10  18
BRANCH  13  35
ATOM     35  C   UNL     1     -17.542  30.303   0.517  1.00  0.00     0.048 C 
BRANCH  35  36
ATOM     36  C   UNL     1     -17.076  29.182   1.458  1.00  0.00     0.003 CG0
ATOM     37  C   UNL     1     -15.549  29.151   1.388  1.00  0.00     0.015 C 
ATOM     38  C   UNL     1     -17.614  27.822   1.004  1.00  0.00     0.015 C 
ATOM     39  G   UNL     1     -17.523  29.445   2.893  1.00  0.00     0.000 G0
ENDBRANCH  35  36
ENDBRANCH  13  35
ENDBRANCH   3   7
ENDBRANCH   1   2
BRANCH   1  40
ATOM     40  C   UNL     1     -22.413  26.084   1.941  1.00  0.00     0.179 C 
BRANCH  40  41
ATOM     41  C   UNL     1     -22.893  27.041   3.018  1.00  0.00     0.259 C 
ATOM     42  O   UNL     1     -24.018  27.527   3.002  1.00  0.00    -0.271 OA
BRANCH  41  43
ATOM     43  N   UNL     1     -22.000  27.403   3.992  1.00  0.00    -0.275 N 
ATOM     44  C   UNL     1     -22.193  27.144   5.427  1.00  0.00     0.140 C 
ATOM     45  N   UNL     1     -20.824  28.100   3.628  1.00  0.00    -0.218 NA
ATOM     46  C   UNL     1     -22.305  28.493   6.110  1.00  0.00     0.025 C 
ATOM     47  C   UNL     1     -20.824  29.423   4.274  1.00  0.00     0.184 C 
ATOM     48  C   UNL     1     -21.058  29.312   5.790  1.00  0.00     0.035 C 
ATOM     49  H   UNL     1     -19.998  27.566   3.936  1.00  0.00     0.149 HD
BRANCH  47  50
ATOM     50  C   UNL     1     -19.504  30.098   3.998  1.00  0.00     0.324 C 
ATOM     51  O   UNL     1     -18.997  30.925   4.719  1.00  0.00    -0.250 OA
BRANCH  50  52
ATOM     52  O   UNL     1     -18.965  29.678   2.848  1.00  0.00    -0.464 OA
BRANCH  52  53
ATOM     53  C   UNL     1     -17.528  29.442   2.896  1.00  0.00     0.239 CG0
ATOM     54  G   UNL     1     -17.101  29.186   1.453  1.00  0.00     0.000 G0
ENDBRANCH  52  53
ENDBRANCH  50  52
ENDBRANCH  47  50
ENDBRANCH  41  43
ENDBRANCH  40  41
BRANCH  40  55
ATOM     55  N   UNL     1     -22.061  24.777   2.469  1.00  0.00    -0.344 N 
ATOM     56  C   UNL     1     -20.822  24.507   2.910  1.00  0.00     0.224 C 
ATOM     57  O   UNL     1     -19.858  25.223   2.657  1.00  0.00    -0.275 OA
ATOM     58  H   UNL     1     -22.780  24.040   2.506  1.00  0.00     0.164 HD
BRANCH  56  59
ATOM     59  C   UNL     1     -20.690  23.339   3.804  1.00  0.00     0.081 C 
ATOM     60  C   UNL     1     -19.685  23.443   4.916  1.00  0.00     0.018 C 
ATOM     61  C   UNL     1     -21.129  23.493   5.253  1.00  0.00    -0.001 C 
ATOM     62  C   UNL     1     -21.794  22.351   5.992  1.00  0.00     0.008 C 
ENDBRANCH  56  59
ENDBRANCH  40  55
ENDBRANCH   1  40
TORSDOF 7
ENDMDL
MODEL 10
REMARK VINA RESULT:    -6.974      2.808      4.646
REMARK INTER + INTRA:         -17.349
REMARK INTER:                 -13.642
REMARK INTRA:                  -3.707
REMARK UNBOUND:                -3.444
REMARK SMILES CCn1c(-c2cc(N3CCN(C)CC3)cnc2[C@H](C)OC)c2c3cc(ccc31)-c1csc(n1)C[C@H](NC(=O)[C@H]1C[C@@H]1C)C(=O)N1CCC[C@H](N1)C(=O)OCC(C)(C)C2
REMARK SMILES IDX 34 1 32 2 29 3 30 4 33 5 31 6 25 7 3 8 28 9 4 10 23 11 27 12
REMARK SMILES IDX 22 13 24 14 26 15 2 16 1 17 5 18 17 19 6 20 16 21 7 22 15 23
REMARK SMILES IDX 18 24 19 25 20 26 21 27 8 28 14 29 9 30 13 31 10 32 11 33
REMARK SMILES IDX 12 34 58 35 55 36 56 37 57 38 35 40 43 41 44 42 45 43 46 44
REMARK SMILES IDX 50 45 47 46 49 47 48 48 51 50 52 51 53 52 54 53 36 55 37 56
REMARK SMILES IDX 38 57 39 59 40 60 41 61 42 62
REMARK H PARENT 50 49 36 58
REMARK Flexibility Score:  160.900
ROOT
ATOM      1  C   UNL     1     -13.349  31.172  -3.812  1.00  0.00     0.102 C 
ENDROOT
BRANCH   1   2
ATOM      2  C   UNL     1     -14.729  31.744  -3.905  1.00  0.00     0.096 A 
ATOM      3  C   UNL     1     -16.813  32.210  -3.334  1.00  0.00     0.081 A 
ATOM      4  C   UNL     1     -16.787  32.867  -4.518  1.00  0.00     0.095 A 
ATOM      5  N   UNL     1     -15.656  31.504  -3.023  1.00  0.00    -0.241 NA
ATOM      6  S   UNL     1     -15.210  32.811  -5.176  1.00  0.00    -0.127 S 
BRANCH   3   7
ATOM      7  C   UNL     1     -17.909  32.159  -2.348  1.00  0.00     0.002 A 
ATOM      8  N   UNL     1     -20.870  31.869   0.506  1.00  0.00    -0.340 N 
ATOM      9  C   UNL     1     -19.943  32.132  -0.483  1.00  0.00     0.049 A 
ATOM     10  C   UNL     1     -20.754  30.543   0.888  1.00  0.00     0.054 A 
ATOM     11  C   UNL     1     -19.208  30.955  -0.719  1.00  0.00     0.004 A 
ATOM     12  C   UNL     1     -19.670  33.325  -1.146  1.00  0.00     0.027 A 
ATOM     13  C   UNL     1     -19.732  29.949   0.149  1.00  0.00    -0.014 A 
ATOM     14  C   UNL     1     -18.177  30.978  -1.664  1.00  0.00     0.021 A 
ATOM     15  C   UNL     1     -18.655  33.306  -2.077  1.00  0.00     0.012 A 
BRANCH   8  16
ATOM     16  C   UNL     1     -21.841  32.857   0.970  1.00  0.00     0.119 C 
ATOM     17  C   UNL     1     -23.099  32.763   0.156  1.00  0.00     0.027 C 
ENDBRANCH   8  16
BRANCH  10  18
ATOM     18  C   UNL     1     -21.637  29.888   1.857  1.00  0.00     0.025 A 
ATOM     19  C   UNL     1     -22.753  29.107   1.476  1.00  0.00     0.078 A 
ATOM     20  C   UNL     1     -21.369  30.058   3.213  1.00  0.00     0.039 A 
ATOM     21  N   UNL     1     -23.542  28.537   2.396  1.00  0.00    -0.256 NA
ATOM     22  C   UNL     1     -22.205  29.474   4.151  1.00  0.00     0.056 A 
ATOM     23  C   UNL     1     -23.272  28.713   3.702  1.00  0.00     0.137 A 
BRANCH  19  24
ATOM     24  C   UNL     1     -23.143  28.868   0.027  1.00  0.00     0.164 C 
ATOM     25  C   UNL     1     -24.431  29.601  -0.275  1.00  0.00     0.045 C 
BRANCH  24  26
ATOM     26  O   UNL     1     -23.373  27.468  -0.137  1.00  0.00    -0.375 OA
ATOM     27  C   UNL     1     -23.707  27.097  -1.465  1.00  0.00     0.195 C 
ENDBRANCH  24  26
ENDBRANCH  19  24
BRANCH  22  28
ATOM     28  N   UNL     1     -21.950  29.608   5.505  1.00  0.00    -0.368 N 
ATOM     29  C   UNL     1     -22.859  30.339   6.402  1.00  0.00     0.132 C 
ATOM     30  C   UNL     1     -20.852  28.874   6.144  1.00  0.00     0.132 C 
ATOM     31  C   UNL     1     -22.145  30.981   7.571  1.00  0.00     0.105 C 
ATOM     32  C   UNL     1     -20.242  29.619   7.309  1.00  0.00     0.105 C 
ATOM     33  N   UNL     1     -21.281  30.021   8.250  1.00  0.00    -0.303 NA
ATOM     34  C   UNL     1     -20.682  30.608   9.450  1.00  0.00     0.105 C 
ENDBRANCH  22  28
ENDBRANCH  10  18
BRANCH  13  35
ATOM     35  C   UNL     1     -19.282  28.516   0.216  1.00  0.00     0.048 C 
BRANCH  35  36
ATOM     36  C   UNL     1     -18.186  28.221   1.251  1.00  0.00     0.003 CG0
ATOM     37  C   UNL     1     -18.646  26.998   2.046  1.00  0.00     0.015 C 
ATOM     38  C   UNL     1     -18.011  29.395   2.219  1.00  0.00     0.015 C 
ATOM     39  G   UNL     1     -16.852  27.926   0.573  1.00  0.00     0.000 G0
ENDBRANCH  35  36
ENDBRANCH  13  35
ENDBRANCH   3   7
ENDBRANCH   1   2
BRANCH   1  40
ATOM     40  C   UNL     1     -13.369  29.646  -3.996  1.00  0.00     0.179 C 
BRANCH  40  41
ATOM     41  C   UNL     1     -12.268  29.026  -3.153  1.00  0.00     0.259 C 
ATOM     42  O   UNL     1     -11.409  28.298  -3.637  1.00  0.00    -0.271 OA
BRANCH  41  43
ATOM     43  N   UNL     1     -12.296  29.254  -1.802  1.00  0.00    -0.275 N 
ATOM     44  C   UNL     1     -11.204  28.899  -0.882  1.00  0.00     0.140 C 
ATOM     45  N   UNL     1     -13.447  29.837  -1.222  1.00  0.00    -0.218 NA
ATOM     46  C   UNL     1     -11.747  27.846   0.065  1.00  0.00     0.025 C 
ATOM     47  C   UNL     1     -14.033  28.895  -0.254  1.00  0.00     0.184 C 
ATOM     48  C   UNL     1     -12.987  28.401   0.758  1.00  0.00     0.035 C 
ATOM     49  H   UNL     1     -13.186  30.709  -0.739  1.00  0.00     0.149 HD
BRANCH  47  50
ATOM     50  C   UNL     1     -15.171  29.579   0.462  1.00  0.00     0.324 C 
ATOM     51  O   UNL     1     -15.439  30.752   0.353  1.00  0.00    -0.250 OA
BRANCH  50  52
ATOM     52  O   UNL     1     -15.845  28.728   1.244  1.00  0.00    -0.464 OA
BRANCH  52  53
ATOM     53  C   UNL     1     -16.850  27.929   0.556  1.00  0.00     0.239 CG0
ATOM     54  G   UNL     1     -18.171  28.230   1.258  1.00  0.00     0.000 G0
ENDBRANCH  52  53
ENDBRANCH  50  52
ENDBRANCH  47  50
ENDBRANCH  41  43
ENDBRANCH  40  41
BRANCH  40  55
ATOM     55  N   UNL     1     -14.676  29.080  -3.715  1.00  0.00    -0.344 N 
ATOM     56  C   UNL     1     -15.517  28.726  -4.700  1.00  0.00     0.224 C 
ATOM     57  O   UNL     1     -15.367  29.094  -5.862  1.00  0.00    -0.275 OA
ATOM     58  H   UNL     1     -14.965  28.946  -2.736  1.00  0.00     0.164 HD
BRANCH  56  59
ATOM     59  C   UNL     1     -16.593  27.785  -4.332  1.00  0.00     0.081 C 
ATOM     60  C   UNL     1     -17.146  27.895  -2.938  1.00  0.00     0.018 C 
ATOM     61  C   UNL     1     -17.983  28.351  -4.075  1.00  0.00    -0.001 C 
ATOM     62  C   UNL     1     -19.224  27.585  -4.482  1.00  0.00     0.008 C 
ENDBRANCH  56  59
ENDBRANCH  40  55
ENDBRANCH   1  40
TORSDOF 7
ENDMDL
MODEL 11
REMARK VINA RESULT:    -6.972      2.366      4.943
REMARK INTER + INTRA:         -17.345
REMARK INTER:                 -13.429
REMARK INTRA:                  -3.916
REMARK UNBOUND:                -3.444
REMARK SMILES CCn1c(-c2cc(N3CCN(C)CC3)cnc2[C@H](C)OC)c2c3cc(ccc31)-c1csc(n1)C[C@H](NC(=O)[C@H]1C[C@@H]1C)C(=O)N1CCC[C@H](N1)C(=O)OCC(C)(C)C2
REMARK SMILES IDX 34 1 32 2 29 3 30 4 33 5 31 6 25 7 3 8 28 9 4 10 23 11 27 12
REMARK SMILES IDX 22 13 24 14 26 15 2 16 1 17 5 18 17 19 6 20 16 21 7 22 15 23
REMARK SMILES IDX 18 24 19 25 20 26 21 27 8 28 14 29 9 30 13 31 10 32 11 33
REMARK SMILES IDX 12 34 58 35 55 36 56 37 57 38 35 40 43 41 44 42 45 43 46 44
REMARK SMILES IDX 50 45 47 46 49 47 48 48 51 50 52 51 53 52 54 53 36 55 37 56
REMARK SMILES IDX 38 57 39 59 40 60 41 61 42 62
REMARK H PARENT 50 49 36 58
REMARK Flexibility Score:  160.900
ROOT
ATOM      1  C   UNL     1     -14.042  34.063  -2.308  1.00  0.00     0.102 C 
ENDROOT
BRANCH   1   2
ATOM      2  C   UNL     1     -15.524  34.275  -2.327  1.00  0.00     0.096 A 
ATOM      3  C   UNL     1     -17.650  34.040  -1.770  1.00  0.00     0.081 A 
ATOM      4  C   UNL     1     -17.809  34.966  -2.745  1.00  0.00     0.095 A 
ATOM      5  N   UNL     1     -16.347  33.591  -1.586  1.00  0.00    -0.241 NA
ATOM      6  S   UNL     1     -16.279  35.480  -3.310  1.00  0.00    -0.127 S 
BRANCH   3   7
ATOM      7  C   UNL     1     -18.684  33.463  -0.890  1.00  0.00     0.002 A 
ATOM      8  N   UNL     1     -21.523  31.662   1.496  1.00  0.00    -0.340 N 
ATOM      9  C   UNL     1     -20.578  32.404   0.814  1.00  0.00     0.049 A 
ATOM     10  C   UNL     1     -21.849  30.548   0.742  1.00  0.00     0.054 A 
ATOM     11  C   UNL     1     -20.281  31.734  -0.388  1.00  0.00     0.004 A 
ATOM     12  C   UNL     1     -19.936  33.579   1.190  1.00  0.00     0.027 A 
ATOM     13  C   UNL     1     -21.095  30.561  -0.431  1.00  0.00    -0.014 A 
ATOM     14  C   UNL     1     -19.318  32.277  -1.245  1.00  0.00     0.021 A 
ATOM     15  C   UNL     1     -19.001  34.089   0.315  1.00  0.00     0.012 A 
BRANCH   8  16
ATOM     16  C   UNL     1     -22.101  32.088   2.769  1.00  0.00     0.119 C 
ATOM     17  C   UNL     1     -21.186  31.715   3.899  1.00  0.00     0.027 C 
ENDBRANCH   8  16
BRANCH  10  18
ATOM     18  C   UNL     1     -22.883  29.578   1.115  1.00  0.00     0.025 A 
ATOM     19  C   UNL     1     -24.266  29.842   0.988  1.00  0.00     0.078 A 
ATOM     20  C   UNL     1     -22.478  28.350   1.631  1.00  0.00     0.039 A 
ATOM     21  N   UNL     1     -25.178  28.931   1.354  1.00  0.00    -0.256 NA
ATOM     22  C   UNL     1     -23.435  27.426   2.019  1.00  0.00     0.056 A 
ATOM     23  C   UNL     1     -24.773  27.750   1.853  1.00  0.00     0.137 A 
BRANCH  19  24
ATOM     24  C   UNL     1     -24.815  31.152   0.449  1.00  0.00     0.164 C 
ATOM     25  C   UNL     1     -26.327  31.128   0.514  1.00  0.00     0.045 C 
BRANCH  24  26
ATOM     26  O   UNL     1     -24.426  31.258  -0.920  1.00  0.00    -0.375 OA
ATOM     27  C   UNL     1     -23.933  32.540  -1.276  1.00  0.00     0.195 C 
ENDBRANCH  24  26
ENDBRANCH  19  24
BRANCH  22  28
ATOM     28  N   UNL     1     -23.063  26.188   2.514  1.00  0.00    -0.368 N 
ATOM     29  C   UNL     1     -23.547  24.932   1.921  1.00  0.00     0.132 C 
ATOM     30  C   UNL     1     -22.025  26.066   3.544  1.00  0.00     0.132 C 
ATOM     31  C   UNL     1     -23.655  23.806   2.926  1.00  0.00     0.105 C 
ATOM     32  C   UNL     1     -22.242  24.891   4.467  1.00  0.00     0.105 C 
ATOM     33  N   UNL     1     -22.421  23.668   3.693  1.00  0.00    -0.303 NA
ATOM     34  C   UNL     1     -22.481  22.506   4.582  1.00  0.00     0.105 C 
ENDBRANCH  22  28
ENDBRANCH  10  18
BRANCH  13  35
ATOM     35  C   UNL     1     -21.147  29.560  -1.551  1.00  0.00     0.048 C 
BRANCH  35  36
ATOM     36  C   UNL     1     -20.196  28.363  -1.404  1.00  0.00     0.003 CG0
ATOM     37  C   UNL     1     -21.062  27.103  -1.448  1.00  0.00     0.015 C 
ATOM     38  C   UNL     1     -19.461  28.403  -0.061  1.00  0.00     0.015 C 
ATOM     39  G   UNL     1     -19.173  28.328  -2.535  1.00  0.00     0.000 G0
ENDBRANCH  35  36
ENDBRANCH  13  35
ENDBRANCH   3   7
ENDBRANCH   1   2
BRANCH   1  40
ATOM     40  C   UNL     1     -13.696  32.569  -2.410  1.00  0.00     0.179 C 
BRANCH  40  41
ATOM     41  C   UNL     1     -13.643  32.168  -3.874  1.00  0.00     0.259 C 
ATOM     42  O   UNL     1     -12.701  32.469  -4.598  1.00  0.00    -0.271 OA
BRANCH  41  43
ATOM     43  N   UNL     1     -14.724  31.502  -4.391  1.00  0.00    -0.275 N 
ATOM     44  C   UNL     1     -15.552  32.006  -5.498  1.00  0.00     0.140 C 
ATOM     45  N   UNL     1     -15.111  30.266  -3.824  1.00  0.00    -0.218 NA
ATOM     46  C   UNL     1     -16.941  32.245  -4.940  1.00  0.00     0.025 C 
ATOM     47  C   UNL     1     -16.473  30.388  -3.278  1.00  0.00     0.184 C 
ATOM     48  C   UNL     1     -17.453  30.947  -4.322  1.00  0.00     0.035 C 
ATOM     49  H   UNL     1     -15.096  29.534  -4.548  1.00  0.00     0.149 HD
BRANCH  47  50
ATOM     50  C   UNL     1     -16.932  29.030  -2.807  1.00  0.00     0.324 C 
ATOM     51  O   UNL     1     -16.380  27.991  -3.081  1.00  0.00    -0.250 OA
BRANCH  50  52
ATOM     52  O   UNL     1     -18.035  29.116  -2.054  1.00  0.00    -0.464 OA
BRANCH  52  53
ATOM     53  C   UNL     1     -19.163  28.328  -2.531  1.00  0.00     0.239 CG0
ATOM     54  G   UNL     1     -20.193  28.352  -1.405  1.00  0.00     0.000 G0
ENDBRANCH  52  53
ENDBRANCH  50  52
ENDBRANCH  47  50
ENDBRANCH  41  43
ENDBRANCH  40  41
BRANCH  40  55
ATOM     55  N   UNL     1     -12.475  32.242  -1.695  1.00  0.00    -0.344 N 
ATOM     56  C   UNL     1     -12.060  30.972  -1.555  1.00  0.00     0.224 C 
ATOM     57  O   UNL     1     -12.791  30.010  -1.770  1.00  0.00    -0.275 OA
ATOM     58  H   UNL     1     -11.914  33.001  -1.285  1.00  0.00     0.164 HD
BRANCH  56  59
ATOM     59  C   UNL     1     -10.636  30.787  -1.213  1.00  0.00     0.081 C 
ATOM     60  C   UNL     1     -10.179  31.321   0.116  1.00  0.00     0.018 C 
ATOM     61  C   UNL     1     -10.291  29.852  -0.063  1.00  0.00    -0.001 C 
ATOM     62  C   UNL     1      -9.055  28.979  -0.111  1.00  0.00     0.008 C 
ENDBRANCH  56  59
ENDBRANCH  40  55
ENDBRANCH   1  40
TORSDOF 7
ENDMDL
MODEL 12
REMARK VINA RESULT:    -6.933      2.499      4.428
REMARK INTER + INTRA:         -17.267
REMARK INTER:                 -13.646
REMARK INTRA:                  -3.621
REMARK UNBOUND:                -3.444
REMARK SMILES CCn1c(-c2cc(N3CCN(C)CC3)cnc2[C@H](C)OC)c2c3cc(ccc31)-c1csc(n1)C[C@H](NC(=O)[C@H]1C[C@@H]1C)C(=O)N1CCC[C@H](N1)C(=O)OCC(C)(C)C2
REMARK SMILES IDX 34 1 32 2 29 3 30 4 33 5 31 6 25 7 3 8 28 9 4 10 23 11 27 12
REMARK SMILES IDX 22 13 24 14 26 15 2 16 1 17 5 18 17 19 6 20 16 21 7 22 15 23
REMARK SMILES IDX 18 24 19 25 20 26 21 27 8 28 14 29 9 30 13 31 10 32 11 33
REMARK SMILES IDX 12 34 58 35 55 36 56 37 57 38 35 40 43 41 44 42 45 43 46 44
REMARK SMILES IDX 50 45 47 46 49 47 48 48 51 50 52 51 53 52 54 53 36 55 37 56
REMARK SMILES IDX 38 57 39 59 40 60 41 61 42 62
REMARK H PARENT 50 49 36 58
REMARK Flexibility Score:  160.900
ROOT
ATOM      1  C   UNL     1     -15.565  31.833  -4.936  1.00  0.00     0.102 C 
ENDROOT
BRANCH   1   2
ATOM      2  C   UNL     1     -16.150  30.495  -4.606  1.00  0.00     0.096 A 
ATOM      3  C   UNL     1     -17.548  29.003  -3.765  1.00  0.00     0.081 A 
ATOM      4  C   UNL     1     -16.678  28.143  -4.346  1.00  0.00     0.095 A 
ATOM      5  N   UNL     1     -17.200  30.347  -3.851  1.00  0.00    -0.241 NA
ATOM      6  S   UNL     1     -15.504  29.017  -5.231  1.00  0.00    -0.127 S 
BRANCH   3   7
ATOM      7  C   UNL     1     -18.807  28.685  -3.064  1.00  0.00     0.002 A 
ATOM      8  N   UNL     1     -22.318  27.984  -1.021  1.00  0.00    -0.340 N 
ATOM      9  C   UNL     1     -21.193  28.085  -1.816  1.00  0.00     0.049 A 
ATOM     10  C   UNL     1     -22.161  28.804   0.084  1.00  0.00     0.054 A 
ATOM     11  C   UNL     1     -20.314  29.005  -1.216  1.00  0.00     0.004 A 
ATOM     12  C   UNL     1     -20.913  27.474  -3.034  1.00  0.00     0.027 A 
ATOM     13  C   UNL     1     -20.931  29.453  -0.007  1.00  0.00    -0.014 A 
ATOM     14  C   UNL     1     -19.106  29.306  -1.856  1.00  0.00     0.021 A 
ATOM     15  C   UNL     1     -19.710  27.786  -3.629  1.00  0.00     0.012 A 
BRANCH   8  16
ATOM     16  C   UNL     1     -23.423  27.076  -1.317  1.00  0.00     0.119 C 
ATOM     17  C   UNL     1     -23.236  25.781  -0.579  1.00  0.00     0.027 C 
ENDBRANCH   8  16
BRANCH  10  18
ATOM     18  C   UNL     1     -23.122  28.885   1.188  1.00  0.00     0.025 A 
ATOM     19  C   UNL     1     -24.251  29.735   1.164  1.00  0.00     0.078 A 
ATOM     20  C   UNL     1     -22.897  28.098   2.315  1.00  0.00     0.039 A 
ATOM     21  N   UNL     1     -25.097  29.787   2.202  1.00  0.00    -0.256 NA
ATOM     22  C   UNL     1     -23.773  28.177   3.386  1.00  0.00     0.056 A 
ATOM     23  C   UNL     1     -24.866  29.024   3.285  1.00  0.00     0.137 A 
BRANCH  19  24
ATOM     24  C   UNL     1     -24.583  30.642  -0.009  1.00  0.00     0.164 C 
ATOM     25  C   UNL     1     -24.367  32.084   0.395  1.00  0.00     0.045 C 
BRANCH  24  26
ATOM     26  O   UNL     1     -25.965  30.464  -0.321  1.00  0.00    -0.375 OA
ATOM     27  C   UNL     1     -26.615  31.658  -0.731  1.00  0.00     0.195 C 
ENDBRANCH  24  26
ENDBRANCH  19  24
BRANCH  22  28
ATOM     28  N   UNL     1     -23.588  27.391   4.510  1.00  0.00    -0.368 N 
ATOM     29  C   UNL     1     -24.289  26.110   4.690  1.00  0.00     0.132 C 
ATOM     30  C   UNL     1     -22.547  27.710   5.493  1.00  0.00     0.132 C 
ATOM     31  C   UNL     1     -24.542  25.775   6.144  1.00  0.00     0.105 C 
ATOM     32  C   UNL     1     -22.919  27.305   6.900  1.00  0.00     0.105 C 
ATOM     33  N   UNL     1     -23.319  25.903   6.932  1.00  0.00    -0.303 NA
ATOM     34  C   UNL     1     -23.535  25.465   8.312  1.00  0.00     0.105 C 
ENDBRANCH  22  28
ENDBRANCH  10  18
BRANCH  13  35
ATOM     35  C   UNL     1     -20.338  30.412   0.986  1.00  0.00     0.048 C 
BRANCH  35  36
ATOM     36  C   UNL     1     -20.335  31.886   0.553  1.00  0.00     0.003 CG0
ATOM     37  C   UNL     1     -20.957  32.685   1.700  1.00  0.00     0.015 C 
ATOM     38  C   UNL     1     -21.185  32.093  -0.704  1.00  0.00     0.015 C 
ATOM     39  G   UNL     1     -18.917  32.380   0.287  1.00  0.00     0.000 G0
ENDBRANCH  35  36
ENDBRANCH  13  35
ENDBRANCH   3   7
ENDBRANCH   1   2
BRANCH   1  40
ATOM     40  C   UNL     1     -14.497  32.238  -3.909  1.00  0.00     0.179 C 
BRANCH  40  41
ATOM     41  C   UNL     1     -14.830  33.614  -3.357  1.00  0.00     0.259 C 
ATOM     42  O   UNL     1     -13.968  34.362  -2.912  1.00  0.00    -0.271 OA
BRANCH  41  43
ATOM     43  N   UNL     1     -16.150  33.978  -3.311  1.00  0.00    -0.275 N 
ATOM     44  C   UNL     1     -16.837  34.726  -4.376  1.00  0.00     0.140 C 
ATOM     45  N   UNL     1     -16.917  33.658  -2.167  1.00  0.00    -0.218 NA
ATOM     46  C   UNL     1     -17.245  36.062  -3.787  1.00  0.00     0.025 C 
ATOM     47  C   UNL     1     -17.391  34.902  -1.537  1.00  0.00     0.184 C 
ATOM     48  C   UNL     1     -18.103  35.813  -2.550  1.00  0.00     0.035 C 
ATOM     49  H   UNL     1     -17.725  33.083  -2.444  1.00  0.00     0.149 HD
BRANCH  47  50
ATOM     50  C   UNL     1     -18.325  34.549  -0.406  1.00  0.00     0.324 C 
ATOM     51  O   UNL     1     -18.403  35.163   0.631  1.00  0.00    -0.250 OA
BRANCH  50  52
ATOM     52  O   UNL     1     -19.052  33.461  -0.688  1.00  0.00    -0.464 OA
BRANCH  52  53
ATOM     53  C   UNL     1     -18.932  32.378   0.280  1.00  0.00     0.239 CG0
ATOM     54  G   UNL     1     -20.356  31.901   0.547  1.00  0.00     0.000 G0
ENDBRANCH  52  53
ENDBRANCH  50  52
ENDBRANCH  47  50
ENDBRANCH  41  43
ENDBRANCH  40  41
BRANCH  40  55
ATOM     55  N   UNL     1     -14.336  31.240  -2.866  1.00  0.00    -0.344 N 
ATOM     56  C   UNL     1     -13.122  30.838  -2.457  1.00  0.00     0.224 C 
ATOM     57  O   UNL     1     -12.099  31.067  -3.096  1.00  0.00    -0.275 OA
ATOM     58  H   UNL     1     -15.174  30.831  -2.429  1.00  0.00     0.164 HD
BRANCH  56  59
ATOM     59  C   UNL     1     -13.065  30.178  -1.138  1.00  0.00     0.081 C 
ATOM     60  C   UNL     1     -14.314  29.485  -0.668  1.00  0.00     0.018 C 
ATOM     61  C   UNL     1     -13.155  28.659  -1.091  1.00  0.00    -0.001 C 
ATOM     62  C   UNL     1     -12.360  27.861  -0.081  1.00  0.00     0.008 C 
ENDBRANCH  56  59
ENDBRANCH  40  55
ENDBRANCH   1  40
TORSDOF 7
ENDMDL
MODEL 13
REMARK VINA RESULT:    -6.853      2.631      5.232
REMARK INTER + INTRA:         -17.108
REMARK INTER:                 -12.818
REMARK INTRA:                  -4.290
REMARK UNBOUND:                -3.444
REMARK SMILES CCn1c(-c2cc(N3CCN(C)CC3)cnc2[C@H](C)OC)c2c3cc(ccc31)-c1csc(n1)C[C@H](NC(=O)[C@H]1C[C@@H]1C)C(=O)N1CCC[C@H](N1)C(=O)OCC(C)(C)C2
REMARK SMILES IDX 34 1 32 2 29 3 30 4 33 5 31 6 25 7 3 8 28 9 4 10 23 11 27 12
REMARK SMILES IDX 22 13 24 14 26 15 2 16 1 17 5 18 17 19 6 20 16 21 7 22 15 23
REMARK SMILES IDX 18 24 19 25 20 26 21 27 8 28 14 29 9 30 13 31 10 32 11 33
REMARK SMILES IDX 12 34 58 35 55 36 56 37 57 38 35 40 43 41 44 42 45 43 46 44
REMARK SMILES IDX 50 45 47 46 49 47 48 48 51 50 52 51 53 52 54 53 36 55 37 56
REMARK SMILES IDX 38 57 39 59 40 60 41 61 42 62
REMARK H PARENT 50 49 36 58
REMARK Flexibility Score:  160.900
ROOT
ATOM      1  C   UNL     1     -13.725  33.709  -2.062  1.00  0.00     0.102 C 
ENDROOT
BRANCH   1   2
ATOM      2  C   UNL     1     -15.183  34.049  -2.059  1.00  0.00     0.096 A 
ATOM      3  C   UNL     1     -17.337  33.897  -1.587  1.00  0.00     0.081 A 
ATOM      4  C   UNL     1     -17.389  35.006  -2.362  1.00  0.00     0.095 A 
ATOM      5  N   UNL     1     -16.082  33.308  -1.479  1.00  0.00    -0.241 NA
ATOM      6  S   UNL     1     -15.806  35.485  -2.794  1.00  0.00    -0.127 S 
BRANCH   3   7
ATOM      7  C   UNL     1     -18.442  33.251  -0.852  1.00  0.00     0.002 A 
ATOM      8  N   UNL     1     -21.398  31.293   1.249  1.00  0.00    -0.340 N 
ATOM      9  C   UNL     1     -20.507  32.099   0.568  1.00  0.00     0.049 A 
ATOM     10  C   UNL     1     -21.004  29.973   1.112  1.00  0.00     0.054 A 
ATOM     11  C   UNL     1     -19.514  31.275   0.007  1.00  0.00     0.004 A 
ATOM     12  C   UNL     1     -20.479  33.485   0.451  1.00  0.00     0.027 A 
ATOM     13  C   UNL     1     -19.838  29.927   0.349  1.00  0.00    -0.014 A 
ATOM     14  C   UNL     1     -18.468  31.868  -0.710  1.00  0.00     0.021 A 
ATOM     15  C   UNL     1     -19.441  34.031  -0.271  1.00  0.00     0.012 A 
BRANCH   8  16
ATOM     16  C   UNL     1     -22.590  31.811   1.917  1.00  0.00     0.119 C 
ATOM     17  C   UNL     1     -23.744  31.842   0.956  1.00  0.00     0.027 C 
ENDBRANCH   8  16
BRANCH  10  18
ATOM     18  C   UNL     1     -21.764  28.831   1.631  1.00  0.00     0.025 A 
ATOM     19  C   UNL     1     -21.576  28.311   2.932  1.00  0.00     0.078 A 
ATOM     20  C   UNL     1     -22.700  28.229   0.795  1.00  0.00     0.039 A 
ATOM     21  N   UNL     1     -22.283  27.257   3.362  1.00  0.00    -0.256 NA
ATOM     22  C   UNL     1     -23.411  27.129   1.251  1.00  0.00     0.056 A 
ATOM     23  C   UNL     1     -23.182  26.683   2.543  1.00  0.00     0.137 A 
BRANCH  19  24
ATOM     24  C   UNL     1     -20.574  28.885   3.920  1.00  0.00     0.164 C 
ATOM     25  C   UNL     1     -20.378  27.910   5.060  1.00  0.00     0.045 C 
BRANCH  24  26
ATOM     26  O   UNL     1     -21.125  30.091   4.449  1.00  0.00    -0.375 OA
ATOM     27  C   UNL     1     -20.385  30.627   5.534  1.00  0.00     0.195 C 
ENDBRANCH  24  26
ENDBRANCH  19  24
BRANCH  22  28
ATOM     28  N   UNL     1     -24.364  26.523   0.450  1.00  0.00    -0.368 N 
ATOM     29  C   UNL     1     -25.166  25.383   0.919  1.00  0.00     0.132 C 
ATOM     30  C   UNL     1     -24.747  27.103  -0.842  1.00  0.00     0.132 C 
ATOM     31  C   UNL     1     -25.575  24.448  -0.198  1.00  0.00     0.105 C 
ATOM     32  C   UNL     1     -25.152  26.063  -1.860  1.00  0.00     0.105 C 
ATOM     33  N   UNL     1     -26.177  25.187  -1.305  1.00  0.00    -0.303 NA
ATOM     34  C   UNL     1     -26.680  24.275  -2.334  1.00  0.00     0.105 C 
ENDBRANCH  22  28
ENDBRANCH  10  18
BRANCH  13  35
ATOM     35  C   UNL     1     -19.079  28.700  -0.071  1.00  0.00     0.048 C 
BRANCH  35  36
ATOM     36  C   UNL     1     -17.689  28.540   0.563  1.00  0.00     0.003 CG0
ATOM     37  C   UNL     1     -17.658  27.158   1.217  1.00  0.00     0.015 C 
ATOM     38  C   UNL     1     -17.451  29.598   1.645  1.00  0.00     0.015 C 
ATOM     39  G   UNL     1     -16.588  28.640  -0.488  1.00  0.00     0.000 G0
ENDBRANCH  35  36
ENDBRANCH  13  35
ENDBRANCH   3   7
ENDBRANCH   1   2
BRANCH   1  40
ATOM     40  C   UNL     1     -13.501  32.241  -2.459  1.00  0.00     0.179 C 
BRANCH  40  41
ATOM     41  C   UNL     1     -13.650  32.102  -3.964  1.00  0.00     0.259 C 
ATOM     42  O   UNL     1     -12.880  32.646  -4.747  1.00  0.00    -0.271 OA
BRANCH  41  43
ATOM     43  N   UNL     1     -14.723  31.390  -4.435  1.00  0.00    -0.275 N 
ATOM     44  C   UNL     1     -15.687  31.906  -5.420  1.00  0.00     0.140 C 
ATOM     45  N   UNL     1     -14.963  30.089  -3.936  1.00  0.00    -0.218 NA
ATOM     46  C   UNL     1     -17.030  31.990  -4.723  1.00  0.00     0.025 C 
ATOM     47  C   UNL     1     -16.272  30.060  -3.264  1.00  0.00     0.184 C 
ATOM     48  C   UNL     1     -17.385  30.614  -4.169  1.00  0.00     0.035 C 
ATOM     49  H   UNL     1     -14.962  29.416  -4.716  1.00  0.00     0.149 HD
BRANCH  47  50
ATOM     50  C   UNL     1     -16.582  28.639  -2.864  1.00  0.00     0.324 C 
ATOM     51  O   UNL     1     -16.197  27.663  -3.462  1.00  0.00    -0.250 OA
BRANCH  50  52
ATOM     52  O   UNL     1     -17.349  28.591  -1.768  1.00  0.00    -0.464 OA
BRANCH  52  53
ATOM     53  C   UNL     1     -16.619  28.633  -0.508  1.00  0.00     0.239 CG0
ATOM     54  G   UNL     1     -17.676  28.534   0.587  1.00  0.00     0.000 G0
ENDBRANCH  52  53
ENDBRANCH  50  52
ENDBRANCH  47  50
ENDBRANCH  41  43
ENDBRANCH  40  41
BRANCH  40  55
ATOM     55  N   UNL     1     -12.231  31.732  -1.972  1.00  0.00    -0.344 N 
ATOM     56  C   UNL     1     -12.078  30.446  -1.615  1.00  0.00     0.224 C 
ATOM     57  O   UNL     1     -13.030  29.697  -1.418  1.00  0.00    -0.275 OA
ATOM     58  H   UNL     1     -11.428  32.372  -1.898  1.00  0.00     0.164 HD
BRANCH  56  59
ATOM     59  C   UNL     1     -10.690  29.947  -1.561  1.00  0.00     0.081 C 
ATOM     60  C   UNL     1      -9.844  30.410  -0.408  1.00  0.00     0.018 C 
ATOM     61  C   UNL     1     -10.312  29.002  -0.428  1.00  0.00    -0.001 C 
ATOM     62  C   UNL     1      -9.340  27.864  -0.653  1.00  0.00     0.008 C 
ENDBRANCH  56  59
ENDBRANCH  40  55
ENDBRANCH   1  40
TORSDOF 7
ENDMDL
MODEL 14
REMARK VINA RESULT:    -6.751      3.610     10.194
REMARK INTER + INTRA:         -16.905
REMARK INTER:                 -13.670
REMARK INTRA:                  -3.234
REMARK UNBOUND:                -3.444
REMARK SMILES CCn1c(-c2cc(N3CCN(C)CC3)cnc2[C@H](C)OC)c2c3cc(ccc31)-c1csc(n1)C[C@H](NC(=O)[C@H]1C[C@@H]1C)C(=O)N1CCC[C@H](N1)C(=O)OCC(C)(C)C2
REMARK SMILES IDX 34 1 32 2 29 3 30 4 33 5 31 6 25 7 3 8 28 9 4 10 23 11 27 12
REMARK SMILES IDX 22 13 24 14 26 15 2 16 1 17 5 18 17 19 6 20 16 21 7 22 15 23
REMARK SMILES IDX 18 24 19 25 20 26 21 27 8 28 14 29 9 30 13 31 10 32 11 33
REMARK SMILES IDX 12 34 58 35 55 36 56 37 57 38 35 40 43 41 44 42 45 43 46 44
REMARK SMILES IDX 50 45 47 46 49 47 48 48 51 50 52 51 53 52 54 53 36 55 37 56
REMARK SMILES IDX 38 57 39 59 40 60 41 61 42 62
REMARK H PARENT 50 49 36 58
REMARK Flexibility Score:  160.900
ROOT
ATOM      1  C   UNL     1     -23.136  29.938   0.394  1.00  0.00     0.102 C 
ENDROOT
BRANCH   1   2
ATOM      2  C   UNL     1     -22.162  31.070   0.495  1.00  0.00     0.096 A 
ATOM      3  C   UNL     1     -20.274  32.197   0.260  1.00  0.00     0.081 A 
ATOM      4  C   UNL     1     -20.988  33.151   0.903  1.00  0.00     0.095 A 
ATOM      5  N   UNL     1     -20.926  30.979   0.097  1.00  0.00    -0.241 NA
ATOM      6  S   UNL     1     -22.600  32.623   1.118  1.00  0.00    -0.127 S 
BRANCH   3   7
ATOM      7  C   UNL     1     -18.906  32.298  -0.282  1.00  0.00     0.002 A 
ATOM      8  N   UNL     1     -15.131  32.434  -1.933  1.00  0.00    -0.340 N 
ATOM      9  C   UNL     1     -16.361  32.555  -1.317  1.00  0.00     0.049 A 
ATOM     10  C   UNL     1     -14.988  31.138  -2.397  1.00  0.00     0.054 A 
ATOM     11  C   UNL     1     -17.022  31.317  -1.413  1.00  0.00     0.004 A 
ATOM     12  C   UNL     1     -16.952  33.671  -0.733  1.00  0.00     0.027 A 
ATOM     13  C   UNL     1     -16.143  30.420  -2.094  1.00  0.00    -0.014 A 
ATOM     14  C   UNL     1     -18.314  31.195  -0.888  1.00  0.00     0.021 A 
ATOM     15  C   UNL     1     -18.220  33.510  -0.217  1.00  0.00     0.012 A 
BRANCH   8  16
ATOM     16  C   UNL     1     -14.154  33.519  -1.978  1.00  0.00     0.119 C 
ATOM     17  C   UNL     1     -12.952  33.162  -1.151  1.00  0.00     0.027 C 
ENDBRANCH   8  16
BRANCH  10  18
ATOM     18  C   UNL     1     -13.769  30.623  -3.029  1.00  0.00     0.025 A 
ATOM     19  C   UNL     1     -13.554  30.655  -4.426  1.00  0.00     0.078 A 
ATOM     20  C   UNL     1     -12.790  30.064  -2.211  1.00  0.00     0.039 A 
ATOM     21  N   UNL     1     -12.430  30.161  -4.961  1.00  0.00    -0.256 NA
ATOM     22  C   UNL     1     -11.641  29.543  -2.784  1.00  0.00     0.056 A 
ATOM     23  C   UNL     1     -11.494  29.621  -4.160  1.00  0.00     0.137 A 
BRANCH  19  24
ATOM     24  C   UNL     1     -14.560  31.230  -5.408  1.00  0.00     0.164 C 
ATOM     25  C   UNL     1     -14.555  30.403  -6.675  1.00  0.00     0.045 C 
BRANCH  24  26
ATOM     26  O   UNL     1     -14.143  32.556  -5.734  1.00  0.00    -0.375 OA
ATOM     27  C   UNL     1     -15.070  33.263  -6.543  1.00  0.00     0.195 C 
ENDBRANCH  24  26
ENDBRANCH  19  24
BRANCH  22  28
ATOM     28  N   UNL     1     -10.641  29.001  -1.995  1.00  0.00    -0.368 N 
ATOM     29  C   UNL     1     -10.605  29.196  -0.537  1.00  0.00     0.132 C 
ATOM     30  C   UNL     1      -9.666  28.057  -2.551  1.00  0.00     0.132 C 
ATOM     31  C   UNL     1      -9.201  29.192   0.026  1.00  0.00     0.105 C 
ATOM     32  C   UNL     1      -8.312  28.143  -1.887  1.00  0.00     0.105 C 
ATOM     33  N   UNL     1      -8.453  28.028  -0.440  1.00  0.00    -0.303 NA
ATOM     34  C   UNL     1      -7.136  27.960   0.197  1.00  0.00     0.105 C 
ENDBRANCH  22  28
ENDBRANCH  10  18
BRANCH  13  35
ATOM     35  C   UNL     1     -16.410  28.970  -2.386  1.00  0.00     0.048 C 
BRANCH  35  36
ATOM     36  C   UNL     1     -17.347  28.703  -3.573  1.00  0.00     0.003 CG0
ATOM     37  C   UNL     1     -16.526  27.956  -4.626  1.00  0.00     0.015 C 
ATOM     38  C   UNL     1     -17.850  30.014  -4.185  1.00  0.00     0.015 C 
ATOM     39  G   UNL     1     -18.544  27.855  -3.153  1.00  0.00     0.000 G0
ENDBRANCH  35  36
ENDBRANCH  13  35
ENDBRANCH   3   7
ENDBRANCH   1   2
BRANCH   1  40
ATOM     40  C   UNL     1     -22.657  28.723   1.204  1.00  0.00     0.179 C 
BRANCH  40  41
ATOM     41  C   UNL     1     -21.817  27.826   0.311  1.00  0.00     0.259 C 
ATOM     42  O   UNL     1     -20.705  27.434   0.643  1.00  0.00    -0.271 OA
BRANCH  41  43
ATOM     43  N   UNL     1     -22.316  27.512  -0.926  1.00  0.00    -0.275 N 
ATOM     44  C   UNL     1     -23.484  26.644  -1.149  1.00  0.00     0.140 C 
ATOM     45  N   UNL     1     -21.671  28.012  -2.081  1.00  0.00    -0.218 NA
ATOM     46  C   UNL     1     -22.989  25.417  -1.889  1.00  0.00     0.025 C 
ATOM     47  C   UNL     1     -21.179  26.884  -2.889  1.00  0.00     0.184 C 
ATOM     48  C   UNL     1     -22.293  25.863  -3.171  1.00  0.00     0.035 C 
ATOM     49  H   UNL     1     -22.338  28.568  -2.636  1.00  0.00     0.149 HD
BRANCH  47  50
ATOM     50  C   UNL     1     -20.623  27.420  -4.185  1.00  0.00     0.324 C 
ATOM     51  O   UNL     1     -20.984  27.065  -5.281  1.00  0.00    -0.250 OA
BRANCH  50  52
ATOM     52  O   UNL     1     -19.667  28.332  -3.971  1.00  0.00    -0.464 OA
BRANCH  52  53
ATOM     53  C   UNL     1     -18.549  27.870  -3.160  1.00  0.00     0.239 CG0
ATOM     54  G   UNL     1     -17.350  28.711  -3.587  1.00  0.00     0.000 G0
ENDBRANCH  52  53
ENDBRANCH  50  52
ENDBRANCH  47  50
ENDBRANCH  41  43
ENDBRANCH  40  41
BRANCH  40  55
ATOM     55  N   UNL     1     -21.962  29.115   2.417  1.00  0.00    -0.344 N 
ATOM     56  C   UNL     1     -22.379  28.714   3.629  1.00  0.00     0.224 C 
ATOM     57  O   UNL     1     -23.492  28.234   3.820  1.00  0.00    -0.275 OA
ATOM     58  H   UNL     1     -21.129  29.716   2.346  1.00  0.00     0.164 HD
BRANCH  56  59
ATOM     59  C   UNL     1     -21.386  28.794   4.718  1.00  0.00     0.081 C 
ATOM     60  C   UNL     1     -20.136  29.584   4.444  1.00  0.00     0.018 C 
ATOM     61  C   UNL     1     -21.147  30.147   5.373  1.00  0.00    -0.001 C 
ATOM     62  C   UNL     1     -20.864  30.258   6.856  1.00  0.00     0.008 C 
ENDBRANCH  56  59
ENDBRANCH  40  55
ENDBRANCH   1  40
TORSDOF 7
ENDMDL
MODEL 15
REMARK VINA RESULT:    -6.699      3.114     10.296
REMARK INTER + INTRA:         -16.800
REMARK INTER:                 -13.543
REMARK INTRA:                  -3.257
REMARK UNBOUND:                -3.444
REMARK SMILES CCn1c(-c2cc(N3CCN(C)CC3)cnc2[C@H](C)OC)c2c3cc(ccc31)-c1csc(n1)C[C@H](NC(=O)[C@H]1C[C@@H]1C)C(=O)N1CCC[C@H](N1)C(=O)OCC(C)(C)C2
REMARK SMILES IDX 34 1 32 2 29 3 30 4 33 5 31 6 25 7 3 8 28 9 4 10 23 11 27 12
REMARK SMILES IDX 22 13 24 14 26 15 2 16 1 17 5 18 17 19 6 20 16 21 7 22 15 23
REMARK SMILES IDX 18 24 19 25 20 26 21 27 8 28 14 29 9 30 13 31 10 32 11 33
REMARK SMILES IDX 12 34 58 35 55 36 56 37 57 38 35 40 43 41 44 42 45 43 46 44
REMARK SMILES IDX 50 45 47 46 49 47 48 48 51 50 52 51 53 52 54 53 36 55 37 56
REMARK SMILES IDX 38 57 39 59 40 60 41 61 42 62
REMARK H PARENT 50 49 36 58
REMARK Flexibility Score:  160.900
ROOT
ATOM      1  C   UNL     1     -24.284  28.198   0.589  1.00  0.00     0.102 C 
ENDROOT
BRANCH   1   2
ATOM      2  C   UNL     1     -23.570  29.438   1.026  1.00  0.00     0.096 A 
ATOM      3  C   UNL     1     -21.996  30.987   1.126  1.00  0.00     0.081 A 
ATOM      4  C   UNL     1     -22.837  31.510   2.048  1.00  0.00     0.095 A 
ATOM      5  N   UNL     1     -22.383  29.760   0.598  1.00  0.00    -0.241 NA
ATOM      6  S   UNL     1     -24.273  30.584   2.113  1.00  0.00    -0.127 S 
BRANCH   3   7
ATOM      7  C   UNL     1     -20.734  31.561   0.620  1.00  0.00     0.002 A 
ATOM      8  N   UNL     1     -17.208  33.019  -0.940  1.00  0.00    -0.340 N 
ATOM      9  C   UNL     1     -18.410  32.694  -0.342  1.00  0.00     0.049 A 
ATOM     10  C   UNL     1     -16.659  31.875  -1.494  1.00  0.00     0.054 A 
ATOM     11  C   UNL     1     -18.640  31.320  -0.541  1.00  0.00     0.004 A 
ATOM     12  C   UNL     1     -19.324  33.515   0.310  1.00  0.00     0.027 A 
ATOM     13  C   UNL     1     -17.522  30.805  -1.267  1.00  0.00    -0.014 A 
ATOM     14  C   UNL     1     -19.822  30.754  -0.052  1.00  0.00     0.021 A 
ATOM     15  C   UNL     1     -20.471  32.920   0.787  1.00  0.00     0.012 A 
BRANCH   8  16
ATOM     16  C   UNL     1     -16.629  34.360  -0.887  1.00  0.00     0.119 C 
ATOM     17  C   UNL     1     -17.535  35.338  -1.579  1.00  0.00     0.027 C 
ENDBRANCH   8  16
BRANCH  10  18
ATOM     18  C   UNL     1     -15.342  31.825  -2.137  1.00  0.00     0.025 A 
ATOM     19  C   UNL     1     -15.082  32.399  -3.402  1.00  0.00     0.078 A 
ATOM     20  C   UNL     1     -14.310  31.169  -1.471  1.00  0.00     0.039 A 
ATOM     21  N   UNL     1     -13.866  32.318  -3.958  1.00  0.00    -0.256 NA
ATOM     22  C   UNL     1     -13.062  31.081  -2.068  1.00  0.00     0.056 A 
ATOM     23  C   UNL     1     -12.878  31.678  -3.306  1.00  0.00     0.137 A 
BRANCH  19  24
ATOM     24  C   UNL     1     -16.137  33.125  -4.218  1.00  0.00     0.164 C 
ATOM     25  C   UNL     1     -16.200  32.526  -5.606  1.00  0.00     0.045 C 
BRANCH  24  26
ATOM     26  O   UNL     1     -15.735  34.490  -4.335  1.00  0.00    -0.375 OA
ATOM     27  C   UNL     1     -16.565  35.258  -5.193  1.00  0.00     0.195 C 
ENDBRANCH  24  26
ENDBRANCH  19  24
BRANCH  22  28
ATOM     28  N   UNL     1     -12.011  30.454  -1.421  1.00  0.00    -0.368 N 
ATOM     29  C   UNL     1     -11.014  31.206  -0.645  1.00  0.00     0.132 C 
ATOM     30  C   UNL     1     -11.944  28.992  -1.329  1.00  0.00     0.132 C 
ATOM     31  C   UNL     1      -9.652  30.546  -0.634  1.00  0.00     0.105 C 
ATOM     32  C   UNL     1     -10.528  28.466  -1.308  1.00  0.00     0.105 C 
ATOM     33  N   UNL     1      -9.756  29.136  -0.268  1.00  0.00    -0.303 NA
ATOM     34  C   UNL     1      -8.431  28.526  -0.143  1.00  0.00     0.105 C 
ENDBRANCH  22  28
ENDBRANCH  10  18
BRANCH  13  35
ATOM     35  C   UNL     1     -17.313  29.372  -1.669  1.00  0.00     0.048 C 
BRANCH  35  36
ATOM     36  C   UNL     1     -17.902  28.981  -3.032  1.00  0.00     0.003 CG0
ATOM     37  C   UNL     1     -16.756  28.391  -3.856  1.00  0.00     0.015 C 
ATOM     38  C   UNL     1     -18.452  30.207  -3.768  1.00  0.00     0.015 C 
ATOM     39  G   UNL     1     -19.014  27.948  -2.878  1.00  0.00     0.000 G0
ENDBRANCH  35  36
ENDBRANCH  13  35
ENDBRANCH   3   7
ENDBRANCH   1   2
BRANCH   1  40
ATOM     40  C   UNL     1     -23.589  26.940   1.132  1.00  0.00     0.179 C 
BRANCH  40  41
ATOM     41  C   UNL     1     -22.520  26.495   0.148  1.00  0.00     0.259 C 
ATOM     42  O   UNL     1     -21.380  26.224   0.504  1.00  0.00    -0.271 OA
BRANCH  41  43
ATOM     43  N   UNL     1     -22.852  26.465  -1.181  1.00  0.00    -0.275 N 
ATOM     44  C   UNL     1     -23.717  25.443  -1.793  1.00  0.00     0.140 C 
ATOM     45  N   UNL     1     -22.320  27.445  -2.050  1.00  0.00    -0.218 NA
ATOM     46  C   UNL     1     -22.863  24.674  -2.782  1.00  0.00     0.025 C 
ATOM     47  C   UNL     1     -21.493  26.788  -3.076  1.00  0.00     0.184 C 
ATOM     48  C   UNL     1     -22.260  25.657  -3.781  1.00  0.00     0.035 C 
ATOM     49  H   UNL     1     -23.089  27.957  -2.505  1.00  0.00     0.149 HD
BRANCH  47  50
ATOM     50  C   UNL     1     -21.049  27.822  -4.080  1.00  0.00     0.324 C 
ATOM     51  O   UNL     1     -21.801  28.499  -4.740  1.00  0.00    -0.250 OA
BRANCH  50  52
ATOM     52  O   UNL     1     -19.715  27.892  -4.159  1.00  0.00    -0.464 OA
BRANCH  52  53
ATOM     53  C   UNL     1     -19.028  27.959  -2.876  1.00  0.00     0.239 CG0
ATOM     54  G   UNL     1     -17.913  28.984  -3.055  1.00  0.00     0.000 G0
ENDBRANCH  52  53
ENDBRANCH  50  52
ENDBRANCH  47  50
ENDBRANCH  41  43
ENDBRANCH  40  41
BRANCH  40  55
ATOM     55  N   UNL     1     -23.068  27.140   2.473  1.00  0.00    -0.344 N 
ATOM     56  C   UNL     1     -23.027  26.140   3.369  1.00  0.00     0.224 C 
ATOM     57  O   UNL     1     -23.656  25.096   3.224  1.00  0.00    -0.275 OA
ATOM     58  H   UNL     1     -22.720  28.070   2.743  1.00  0.00     0.164 HD
BRANCH  56  59
ATOM     59  C   UNL     1     -22.106  26.324   4.507  1.00  0.00     0.081 C 
ATOM     60  C   UNL     1     -21.634  25.081   5.209  1.00  0.00     0.018 C 
ATOM     61  C   UNL     1     -20.674  25.827   4.358  1.00  0.00    -0.001 C 
ATOM     62  C   UNL     1     -19.518  26.585   4.973  1.00  0.00     0.008 C 
ENDBRANCH  56  59
ENDBRANCH  40  55
ENDBRANCH   1  40
TORSDOF 7
ENDMDL
MODEL 16
REMARK VINA RESULT:    -6.628      3.436     10.114
REMARK INTER + INTRA:         -16.659
REMARK INTER:                 -12.589
REMARK INTRA:                  -4.070
REMARK UNBOUND:                -3.444
REMARK SMILES CCn1c(-c2cc(N3CCN(C)CC3)cnc2[C@H](C)OC)c2c3cc(ccc31)-c1csc(n1)C[C@H](NC(=O)[C@H]1C[C@@H]1C)C(=O)N1CCC[C@H](N1)C(=O)OCC(C)(C)C2
REMARK SMILES IDX 34 1 32 2 29 3 30 4 33 5 31 6 25 7 3 8 28 9 4 10 23 11 27 12
REMARK SMILES IDX 22 13 24 14 26 15 2 16 1 17 5 18 17 19 6 20 16 21 7 22 15 23
REMARK SMILES IDX 18 24 19 25 20 26 21 27 8 28 14 29 9 30 13 31 10 32 11 33
REMARK SMILES IDX 12 34 58 35 55 36 56 37 57 38 35 40 43 41 44 42 45 43 46 44
REMARK SMILES IDX 50 45 47 46 49 47 48 48 51 50 52 51 53 52 54 53 36 55 37 56
REMARK SMILES IDX 38 57 39 59 40 60 41 61 42 62
REMARK H PARENT 50 49 36 58
REMARK Flexibility Score:  160.900
ROOT
ATOM      1  C   UNL     1     -23.193  30.895   0.185  1.00  0.00     0.102 C 
ENDROOT
BRANCH   1   2
ATOM      2  C   UNL     1     -22.001  31.741   0.509  1.00  0.00     0.096 A 
ATOM      3  C   UNL     1     -19.948  32.553   0.380  1.00  0.00     0.081 A 
ATOM      4  C   UNL     1     -20.392  33.316   1.406  1.00  0.00     0.095 A 
ATOM      5  N   UNL     1     -20.849  31.598  -0.080  1.00  0.00    -0.241 NA
ATOM      6  S   UNL     1     -22.053  33.017   1.675  1.00  0.00    -0.127 S 
BRANCH   3   7
ATOM      7  C   UNL     1     -18.640  32.616  -0.300  1.00  0.00     0.002 A 
ATOM      8  N   UNL     1     -15.037  32.623  -2.302  1.00  0.00    -0.340 N 
ATOM      9  C   UNL     1     -16.214  32.797  -1.601  1.00  0.00     0.049 A 
ATOM     10  C   UNL     1     -14.860  31.274  -2.555  1.00  0.00     0.054 A 
ATOM     11  C   UNL     1     -16.809  31.534  -1.425  1.00  0.00     0.004 A 
ATOM     12  C   UNL     1     -16.815  33.971  -1.158  1.00  0.00     0.027 A 
ATOM     13  C   UNL     1     -15.942  30.571  -2.026  1.00  0.00    -0.014 A 
ATOM     14  C   UNL     1     -18.041  31.451  -0.766  1.00  0.00     0.021 A 
ATOM     15  C   UNL     1     -18.021  33.849  -0.504  1.00  0.00     0.012 A 
BRANCH   8  16
ATOM     16  C   UNL     1     -14.131  33.724  -2.622  1.00  0.00     0.119 C 
ATOM     17  C   UNL     1     -13.086  33.856  -1.551  1.00  0.00     0.027 C 
ENDBRANCH   8  16
BRANCH  10  18
ATOM     18  C   UNL     1     -13.674  30.709  -3.204  1.00  0.00     0.025 A 
ATOM     19  C   UNL     1     -13.602  30.462  -4.595  1.00  0.00     0.078 A 
ATOM     20  C   UNL     1     -12.577  30.389  -2.408  1.00  0.00     0.039 A 
ATOM     21  N   UNL     1     -12.501  29.932  -5.144  1.00  0.00    -0.256 NA
ATOM     22  C   UNL     1     -11.453  29.826  -2.992  1.00  0.00     0.056 A 
ATOM     23  C   UNL     1     -11.451  29.625  -4.363  1.00  0.00     0.137 A 
BRANCH  19  24
ATOM     24  C   UNL     1     -14.744  30.762  -5.551  1.00  0.00     0.164 C 
ATOM     25  C   UNL     1     -14.666  29.824  -6.736  1.00  0.00     0.045 C 
BRANCH  24  26
ATOM     26  O   UNL     1     -14.576  32.099  -6.024  1.00  0.00    -0.375 OA
ATOM     27  C   UNL     1     -15.759  32.663  -6.569  1.00  0.00     0.195 C 
ENDBRANCH  24  26
ENDBRANCH  19  24
BRANCH  22  28
ATOM     28  N   UNL     1     -10.340  29.519  -2.229  1.00  0.00    -0.368 N 
ATOM     29  C   UNL     1      -9.183  28.802  -2.789  1.00  0.00     0.132 C 
ATOM     30  C   UNL     1     -10.182  30.050  -0.871  1.00  0.00     0.132 C 
ATOM     31  C   UNL     1      -8.456  27.960  -1.764  1.00  0.00     0.105 C 
ATOM     32  C   UNL     1      -9.422  29.120   0.044  1.00  0.00     0.105 C 
ATOM     33  N   UNL     1      -8.153  28.738  -0.566  1.00  0.00    -0.303 NA
ATOM     34  C   UNL     1      -7.347  27.960   0.377  1.00  0.00     0.105 C 
ENDBRANCH  22  28
ENDBRANCH  10  18
BRANCH  13  35
ATOM     35  C   UNL     1     -16.150  29.082  -2.045  1.00  0.00     0.048 C 
BRANCH  35  36
ATOM     36  C   UNL     1     -17.408  28.606  -2.787  1.00  0.00     0.003 CG0
ATOM     37  C   UNL     1     -16.975  27.453  -3.695  1.00  0.00     0.015 C 
ATOM     38  C   UNL     1     -17.990  29.722  -3.659  1.00  0.00     0.015 C 
ATOM     39  G   UNL     1     -18.476  28.123  -1.810  1.00  0.00     0.000 G0
ENDBRANCH  35  36
ENDBRANCH  13  35
ENDBRANCH   3   7
ENDBRANCH   1   2
BRANCH   1  40
ATOM     40  C   UNL     1     -22.923  29.416   0.498  1.00  0.00     0.179 C 
BRANCH  40  41
ATOM     41  C   UNL     1     -22.714  29.251   1.994  1.00  0.00     0.259 C 
ATOM     42  O   UNL     1     -23.605  29.477   2.804  1.00  0.00    -0.271 OA
BRANCH  41  43
ATOM     43  N   UNL     1     -21.463  28.897   2.427  1.00  0.00    -0.275 N 
ATOM     44  C   UNL     1     -20.828  29.432   3.642  1.00  0.00     0.140 C 
ATOM     45  N   UNL     1     -20.697  27.988   1.661  1.00  0.00    -0.218 NA
ATOM     46  C   UNL     1     -19.610  30.218   3.197  1.00  0.00     0.025 C 
ATOM     47  C   UNL     1     -19.465  28.654   1.206  1.00  0.00     0.184 C 
ATOM     48  C   UNL     1     -18.707  29.302   2.376  1.00  0.00     0.035 C 
ATOM     49  H   UNL     1     -20.453  27.171   2.239  1.00  0.00     0.149 HD
BRANCH  47  50
ATOM     50  C   UNL     1     -18.590  27.639   0.516  1.00  0.00     0.324 C 
ATOM     51  O   UNL     1     -18.531  26.470   0.818  1.00  0.00    -0.250 OA
BRANCH  50  52
ATOM     52  O   UNL     1     -17.873  28.193  -0.469  1.00  0.00    -0.464 OA
BRANCH  52  53
ATOM     53  C   UNL     1     -18.479  28.104  -1.791  1.00  0.00     0.239 CG0
ATOM     54  G   UNL     1     -17.418  28.602  -2.768  1.00  0.00     0.000 G0
ENDBRANCH  52  53
ENDBRANCH  50  52
ENDBRANCH  47  50
ENDBRANCH  41  43
ENDBRANCH  40  41
BRANCH  40  55
ATOM     55  N   UNL     1     -23.966  28.549  -0.021  1.00  0.00    -0.344 N 
ATOM     56  C   UNL     1     -23.691  27.327  -0.504  1.00  0.00     0.224 C 
ATOM     57  O   UNL     1     -22.552  26.970  -0.791  1.00  0.00    -0.275 OA
ATOM     58  H   UNL     1     -24.941  28.879  -0.017  1.00  0.00     0.164 HD
BRANCH  56  59
ATOM     59  C   UNL     1     -24.828  26.389  -0.590  1.00  0.00     0.081 C 
ATOM     60  C   UNL     1     -26.072  26.887  -1.272  1.00  0.00     0.018 C 
ATOM     61  C   UNL     1     -25.234  25.878  -1.966  1.00  0.00    -0.001 C 
ATOM     62  C   UNL     1     -25.725  24.459  -2.157  1.00  0.00     0.008 C 
ENDBRANCH  56  59
ENDBRANCH  40  55
ENDBRANCH   1  40
TORSDOF 7
ENDMDL
MODEL 17
REMARK VINA RESULT:    -6.585      2.905      4.569
REMARK INTER + INTRA:         -16.574
REMARK INTER:                 -12.225
REMARK INTRA:                  -4.349
REMARK UNBOUND:                -3.444
REMARK SMILES CCn1c(-c2cc(N3CCN(C)CC3)cnc2[C@H](C)OC)c2c3cc(ccc31)-c1csc(n1)C[C@H](NC(=O)[C@H]1C[C@@H]1C)C(=O)N1CCC[C@H](N1)C(=O)OCC(C)(C)C2
REMARK SMILES IDX 34 1 32 2 29 3 30 4 33 5 31 6 25 7 3 8 28 9 4 10 23 11 27 12
REMARK SMILES IDX 22 13 24 14 26 15 2 16 1 17 5 18 17 19 6 20 16 21 7 22 15 23
REMARK SMILES IDX 18 24 19 25 20 26 21 27 8 28 14 29 9 30 13 31 10 32 11 33
REMARK SMILES IDX 12 34 58 35 55 36 56 37 57 38 35 40 43 41 44 42 45 43 46 44
REMARK SMILES IDX 50 45 47 46 49 47 48 48 51 50 52 51 53 52 54 53 36 55 37 56
REMARK SMILES IDX 38 57 39 59 40 60 41 61 42 62
REMARK H PARENT 50 49 36 58
REMARK Flexibility Score:  160.900
ROOT
ATOM      1  C   UNL     1     -12.624  29.366  -2.189  1.00  0.00     0.102 C 
ENDROOT
BRANCH   1   2
ATOM      2  C   UNL     1     -13.301  29.151  -0.871  1.00  0.00     0.096 A 
ATOM      3  C   UNL     1     -14.934  29.019   0.613  1.00  0.00     0.081 A 
ATOM      4  C   UNL     1     -13.905  28.699   1.432  1.00  0.00     0.095 A 
ATOM      5  N   UNL     1     -14.574  29.353  -0.688  1.00  0.00    -0.241 NA
ATOM      6  S   UNL     1     -12.460  28.577   0.526  1.00  0.00    -0.127 S 
BRANCH   3   7
ATOM      7  C   UNL     1     -16.374  29.053   0.935  1.00  0.00     0.002 A 
ATOM      8  N   UNL     1     -20.424  28.996   1.699  1.00  0.00    -0.340 N 
ATOM      9  C   UNL     1     -19.050  29.094   1.605  1.00  0.00     0.049 A 
ATOM     10  C   UNL     1     -20.926  28.557   0.486  1.00  0.00     0.054 A 
ATOM     11  C   UNL     1     -18.670  28.687   0.313  1.00  0.00     0.004 A 
ATOM     12  C   UNL     1     -18.121  29.462   2.573  1.00  0.00     0.027 A 
ATOM     13  C   UNL     1     -19.865  28.354  -0.395  1.00  0.00    -0.014 A 
ATOM     14  C   UNL     1     -17.310  28.667  -0.018  1.00  0.00     0.021 A 
ATOM     15  C   UNL     1     -16.793  29.440   2.207  1.00  0.00     0.012 A 
BRANCH   8  16
ATOM     16  C   UNL     1     -21.171  29.387   2.892  1.00  0.00     0.119 C 
ATOM     17  C   UNL     1     -21.466  28.178   3.733  1.00  0.00     0.027 C 
ENDBRANCH   8  16
BRANCH  10  18
ATOM     18  C   UNL     1     -22.356  28.419   0.190  1.00  0.00     0.025 A 
ATOM     19  C   UNL     1     -23.186  29.520  -0.124  1.00  0.00     0.078 A 
ATOM     20  C   UNL     1     -22.918  27.146   0.238  1.00  0.00     0.039 A 
ATOM     21  N   UNL     1     -24.491  29.349  -0.375  1.00  0.00    -0.256 NA
ATOM     22  C   UNL     1     -24.273  26.991  -0.008  1.00  0.00     0.056 A 
ATOM     23  C   UNL     1     -25.021  28.115  -0.322  1.00  0.00     0.137 A 
BRANCH  19  24
ATOM     24  C   UNL     1     -22.678  30.950  -0.192  1.00  0.00     0.164 C 
ATOM     25  C   UNL     1     -23.145  31.707   1.033  1.00  0.00     0.045 C 
BRANCH  24  26
ATOM     26  O   UNL     1     -23.253  31.563  -1.346  1.00  0.00    -0.375 OA
ATOM     27  C   UNL     1     -24.048  32.701  -1.050  1.00  0.00     0.195 C 
ENDBRANCH  24  26
ENDBRANCH  19  24
BRANCH  22  28
ATOM     28  N   UNL     1     -24.855  25.735   0.011  1.00  0.00    -0.368 N 
ATOM     29  C   UNL     1     -24.419  24.687   0.946  1.00  0.00     0.132 C 
ATOM     30  C   UNL     1     -26.056  25.446  -0.780  1.00  0.00     0.132 C 
ATOM     31  C   UNL     1     -24.602  23.289   0.396  1.00  0.00     0.105 C 
ATOM     32  C   UNL     1     -26.124  24.012  -1.250  1.00  0.00     0.105 C 
ATOM     33  N   UNL     1     -25.954  23.103  -0.123  1.00  0.00    -0.303 NA
ATOM     34  C   UNL     1     -26.169  21.718  -0.547  1.00  0.00     0.105 C 
ENDBRANCH  22  28
ENDBRANCH  10  18
BRANCH  13  35
ATOM     35  C   UNL     1     -19.950  27.908  -1.828  1.00  0.00     0.048 C 
BRANCH  35  36
ATOM     36  C   UNL     1     -20.035  29.039  -2.863  1.00  0.00     0.003 CG0
ATOM     37  C   UNL     1     -19.660  30.332  -2.137  1.00  0.00     0.015 C 
ATOM     38  C   UNL     1     -21.458  29.181  -3.410  1.00  0.00     0.015 C 
ATOM     39  G   UNL     1     -19.073  28.799  -4.023  1.00  0.00     0.000 G0
ENDBRANCH  35  36
ENDBRANCH  13  35
ENDBRANCH   3   7
ENDBRANCH   1   2
BRANCH   1  40
ATOM     40  C   UNL     1     -12.751  30.827  -2.645  1.00  0.00     0.179 C 
BRANCH  40  41
ATOM     41  C   UNL     1     -12.524  30.905  -4.145  1.00  0.00     0.259 C 
ATOM     42  O   UNL     1     -11.412  31.088  -4.626  1.00  0.00    -0.271 OA
BRANCH  41  43
ATOM     43  N   UNL     1     -13.623  30.826  -4.960  1.00  0.00    -0.275 N 
ATOM     44  C   UNL     1     -13.988  31.849  -5.953  1.00  0.00     0.140 C 
ATOM     45  N   UNL     1     -14.497  29.721  -4.839  1.00  0.00    -0.218 NA
ATOM     46  C   UNL     1     -15.314  32.439  -5.514  1.00  0.00     0.025 C 
ATOM     47  C   UNL     1     -15.832  30.199  -4.445  1.00  0.00     0.184 C 
ATOM     48  C   UNL     1     -16.334  31.312  -5.379  1.00  0.00     0.035 C 
ATOM     49  H   UNL     1     -14.560  29.231  -5.743  1.00  0.00     0.149 HD
BRANCH  47  50
ATOM     50  C   UNL     1     -16.790  29.034  -4.459  1.00  0.00     0.324 C 
ATOM     51  O   UNL     1     -16.694  28.081  -5.197  1.00  0.00    -0.250 OA
BRANCH  50  52
ATOM     52  O   UNL     1     -17.769  29.188  -3.561  1.00  0.00    -0.464 OA
BRANCH  52  53
ATOM     53  C   UNL     1     -19.092  28.788  -4.024  1.00  0.00     0.239 CG0
ATOM     54  G   UNL     1     -20.033  29.026  -2.846  1.00  0.00     0.000 G0
ENDBRANCH  52  53
ENDBRANCH  50  52
ENDBRANCH  47  50
ENDBRANCH  41  43
ENDBRANCH  40  41
BRANCH  40  55
ATOM     55  N   UNL     1     -14.014  31.418  -2.238  1.00  0.00    -0.344 N 
ATOM     56  C   UNL     1     -14.125  32.729  -1.971  1.00  0.00     0.224 C 
ATOM     57  O   UNL     1     -13.150  33.452  -1.788  1.00  0.00    -0.275 OA
ATOM     58  H   UNL     1     -14.846  30.816  -2.154  1.00  0.00     0.164 HD
BRANCH  56  59
ATOM     59  C   UNL     1     -15.492  33.286  -2.000  1.00  0.00     0.081 C 
ATOM     60  C   UNL     1     -16.602  32.393  -1.519  1.00  0.00     0.018 C 
ATOM     61  C   UNL     1     -16.191  33.540  -0.672  1.00  0.00    -0.001 C 
ATOM     62  C   UNL     1     -17.102  34.734  -0.486  1.00  0.00     0.008 C 
ENDBRANCH  56  59
ENDBRANCH  40  55
ENDBRANCH   1  40
TORSDOF 7
ENDMDL
MODEL 18
REMARK VINA RESULT:    -6.561      2.694      4.058
REMARK INTER + INTRA:         -16.525
REMARK INTER:                 -13.372
REMARK INTRA:                  -3.153
REMARK UNBOUND:                -3.444
REMARK SMILES CCn1c(-c2cc(N3CCN(C)CC3)cnc2[C@H](C)OC)c2c3cc(ccc31)-c1csc(n1)C[C@H](NC(=O)[C@H]1C[C@@H]1C)C(=O)N1CCC[C@H](N1)C(=O)OCC(C)(C)C2
REMARK SMILES IDX 34 1 32 2 29 3 30 4 33 5 31 6 25 7 3 8 28 9 4 10 23 11 27 12
REMARK SMILES IDX 22 13 24 14 26 15 2 16 1 17 5 18 17 19 6 20 16 21 7 22 15 23
REMARK SMILES IDX 18 24 19 25 20 26 21 27 8 28 14 29 9 30 13 31 10 32 11 33
REMARK SMILES IDX 12 34 58 35 55 36 56 37 57 38 35 40 43 41 44 42 45 43 46 44
REMARK SMILES IDX 50 45 47 46 49 47 48 48 51 50 52 51 53 52 54 53 36 55 37 56
REMARK SMILES IDX 38 57 39 59 40 60 41 61 42 62
REMARK H PARENT 50 49 36 58
REMARK Flexibility Score:  160.900
ROOT
ATOM      1  C   UNL     1     -13.228  32.232  -1.480  1.00  0.00     0.102 C 
ENDROOT
BRANCH   1   2
ATOM      2  C   UNL     1     -14.571  32.889  -1.560  1.00  0.00     0.096 A 
ATOM      3  C   UNL     1     -16.737  33.203  -1.251  1.00  0.00     0.081 A 
ATOM      4  C   UNL     1     -16.481  34.325  -1.964  1.00  0.00     0.095 A 
ATOM      5  N   UNL     1     -15.655  32.345  -1.088  1.00  0.00    -0.241 NA
ATOM      6  S   UNL     1     -14.801  34.455  -2.256  1.00  0.00    -0.127 S 
BRANCH   3   7
ATOM      7  C   UNL     1     -18.013  32.791  -0.634  1.00  0.00     0.002 A 
ATOM      8  N   UNL     1     -21.468  31.560   1.246  1.00  0.00    -0.340 N 
ATOM      9  C   UNL     1     -20.415  32.092   0.528  1.00  0.00     0.049 A 
ATOM     10  C   UNL     1     -21.022  30.449   1.941  1.00  0.00     0.054 A 
ATOM     11  C   UNL     1     -19.271  31.316   0.790  1.00  0.00     0.004 A 
ATOM     12  C   UNL     1     -20.379  33.219  -0.286  1.00  0.00     0.027 A 
ATOM     13  C   UNL     1     -19.664  30.271   1.682  1.00  0.00    -0.014 A 
ATOM     14  C   UNL     1     -18.056  31.679   0.199  1.00  0.00     0.021 A 
ATOM     15  C   UNL     1     -19.168  33.539  -0.859  1.00  0.00     0.012 A 
BRANCH   8  16
ATOM     16  C   UNL     1     -22.828  32.089   1.174  1.00  0.00     0.119 C 
ATOM     17  C   UNL     1     -23.537  31.521  -0.023  1.00  0.00     0.027 C 
ENDBRANCH   8  16
BRANCH  10  18
ATOM     18  C   UNL     1     -21.888  29.580   2.743  1.00  0.00     0.025 A 
ATOM     19  C   UNL     1     -22.036  29.721   4.142  1.00  0.00     0.078 A 
ATOM     20  C   UNL     1     -22.583  28.563   2.093  1.00  0.00     0.039 A 
ATOM     21  N   UNL     1     -22.829  28.895   4.837  1.00  0.00    -0.256 NA
ATOM     22  C   UNL     1     -23.387  27.708   2.831  1.00  0.00     0.056 A 
ATOM     23  C   UNL     1     -23.492  27.915   4.198  1.00  0.00     0.137 A 
BRANCH  19  24
ATOM     24  C   UNL     1     -21.316  30.787   4.949  1.00  0.00     0.164 C 
ATOM     25  C   UNL     1     -20.098  30.179   5.611  1.00  0.00     0.045 C 
BRANCH  24  26
ATOM     26  O   UNL     1     -22.207  31.235   5.971  1.00  0.00    -0.375 OA
ATOM     27  C   UNL     1     -21.550  31.842   7.074  1.00  0.00     0.195 C 
ENDBRANCH  24  26
ENDBRANCH  19  24
BRANCH  22  28
ATOM     28  N   UNL     1     -24.106  26.702   2.210  1.00  0.00    -0.368 N 
ATOM     29  C   UNL     1     -24.911  25.734   2.971  1.00  0.00     0.132 C 
ATOM     30  C   UNL     1     -24.245  26.662   0.750  1.00  0.00     0.132 C 
ATOM     31  C   UNL     1     -25.012  24.386   2.292  1.00  0.00     0.105 C 
ATOM     32  C   UNL     1     -24.356  25.257   0.205  1.00  0.00     0.105 C 
ATOM     33  N   UNL     1     -25.414  24.530   0.896  1.00  0.00    -0.303 NA
ATOM     34  C   UNL     1     -25.627  23.223   0.272  1.00  0.00     0.105 C 
ENDBRANCH  22  28
ENDBRANCH  10  18
BRANCH  13  35
ATOM     35  C   UNL     1     -18.780  29.173   2.203  1.00  0.00     0.048 C 
BRANCH  35  36
ATOM     36  C   UNL     1     -18.724  27.908   1.334  1.00  0.00     0.003 CG0
ATOM     37  C   UNL     1     -19.511  28.212   0.059  1.00  0.00     0.015 C 
ATOM     38  C   UNL     1     -19.383  26.721   2.044  1.00  0.00     0.015 C 
ATOM     39  G   UNL     1     -17.285  27.544   0.980  1.00  0.00     0.000 G0
ENDBRANCH  35  36
ENDBRANCH  13  35
ENDBRANCH   3   7
ENDBRANCH   1   2
BRANCH   1  40
ATOM     40  C   UNL     1     -12.751  31.780  -2.869  1.00  0.00     0.179 C 
BRANCH  40  41
ATOM     41  C   UNL     1     -12.458  30.289  -2.836  1.00  0.00     0.259 C 
ATOM     42  O   UNL     1     -11.342  29.840  -3.066  1.00  0.00    -0.271 OA
BRANCH  41  43
ATOM     43  N   UNL     1     -13.508  29.440  -2.600  1.00  0.00    -0.275 N 
ATOM     44  C   UNL     1     -14.473  29.015  -3.626  1.00  0.00     0.140 C 
ATOM     45  N   UNL     1     -13.723  28.952  -1.290  1.00  0.00    -0.218 NA
ATOM     46  C   UNL     1     -15.826  29.561  -3.217  1.00  0.00     0.025 C 
ATOM     47  C   UNL     1     -15.039  29.406  -0.812  1.00  0.00     0.184 C 
ATOM     48  C   UNL     1     -16.154  29.063  -1.813  1.00  0.00     0.035 C 
ATOM     49  H   UNL     1     -13.696  27.922  -1.297  1.00  0.00     0.149 HD
BRANCH  47  50
ATOM     50  C   UNL     1     -15.319  28.763   0.524  1.00  0.00     0.324 C 
ATOM     51  O   UNL     1     -14.483  28.228   1.212  1.00  0.00    -0.250 OA
BRANCH  50  52
ATOM     52  O   UNL     1     -16.614  28.847   0.849  1.00  0.00    -0.464 OA
BRANCH  52  53
ATOM     53  C   UNL     1     -17.293  27.566   0.994  1.00  0.00     0.239 CG0
ATOM     54  G   UNL     1     -18.739  27.900   1.351  1.00  0.00     0.000 G0
ENDBRANCH  52  53
ENDBRANCH  50  52
ENDBRANCH  47  50
ENDBRANCH  41  43
ENDBRANCH  40  41
BRANCH  40  55
ATOM     55  N   UNL     1     -13.690  32.143  -3.915  1.00  0.00    -0.344 N 
ATOM     56  C   UNL     1     -13.319  32.209  -5.203  1.00  0.00     0.224 C 
ATOM     57  O   UNL     1     -12.142  32.237  -5.552  1.00  0.00    -0.275 OA
ATOM     58  H   UNL     1     -14.666  32.356  -3.662  1.00  0.00     0.164 HD
BRANCH  56  59
ATOM     59  C   UNL     1     -14.408  32.152  -6.198  1.00  0.00     0.081 C 
ATOM     60  C   UNL     1     -15.815  32.196  -5.671  1.00  0.00     0.018 C 
ATOM     61  C   UNL     1     -15.281  33.387  -6.377  1.00  0.00    -0.001 C 
ATOM     62  C   UNL     1     -15.804  33.782  -7.741  1.00  0.00     0.008 C 
ENDBRANCH  56  59
ENDBRANCH  40  55
ENDBRANCH   1  40
TORSDOF 7
ENDMDL
MODEL 19
REMARK VINA RESULT:    -6.404      2.840      4.489
REMARK INTER + INTRA:         -16.212
REMARK INTER:                 -13.266
REMARK INTRA:                  -2.946
REMARK UNBOUND:                -3.444
REMARK SMILES CCn1c(-c2cc(N3CCN(C)CC3)cnc2[C@H](C)OC)c2c3cc(ccc31)-c1csc(n1)C[C@H](NC(=O)[C@H]1C[C@@H]1C)C(=O)N1CCC[C@H](N1)C(=O)OCC(C)(C)C2
REMARK SMILES IDX 34 1 32 2 29 3 30 4 33 5 31 6 25 7 3 8 28 9 4 10 23 11 27 12
REMARK SMILES IDX 22 13 24 14 26 15 2 16 1 17 5 18 17 19 6 20 16 21 7 22 15 23
REMARK SMILES IDX 18 24 19 25 20 26 21 27 8 28 14 29 9 30 13 31 10 32 11 33
REMARK SMILES IDX 12 34 58 35 55 36 56 37 57 38 35 40 43 41 44 42 45 43 46 44
REMARK SMILES IDX 50 45 47 46 49 47 48 48 51 50 52 51 53 52 54 53 36 55 37 56
REMARK SMILES IDX 38 57 39 59 40 60 41 61 42 62
REMARK H PARENT 50 49 36 58
REMARK Flexibility Score:  160.900
ROOT
ATOM      1  C   UNL     1     -13.167  32.181  -1.488  1.00  0.00     0.102 C 
ENDROOT
BRANCH   1   2
ATOM      2  C   UNL     1     -14.484  32.890  -1.537  1.00  0.00     0.096 A 
ATOM      3  C   UNL     1     -16.645  33.254  -1.244  1.00  0.00     0.081 A 
ATOM      4  C   UNL     1     -16.334  34.424  -1.852  1.00  0.00     0.095 A 
ATOM      5  N   UNL     1     -15.596  32.346  -1.136  1.00  0.00    -0.241 NA
ATOM      6  S   UNL     1     -14.645  34.518  -2.098  1.00  0.00    -0.127 S 
BRANCH   3   7
ATOM      7  C   UNL     1     -17.947  32.837  -0.691  1.00  0.00     0.002 A 
ATOM      8  N   UNL     1     -21.485  31.582   1.013  1.00  0.00    -0.340 N 
ATOM      9  C   UNL     1     -20.400  32.127   0.355  1.00  0.00     0.049 A 
ATOM     10  C   UNL     1     -21.079  30.438   1.678  1.00  0.00     0.054 A 
ATOM     11  C   UNL     1     -19.276  31.324   0.628  1.00  0.00     0.004 A 
ATOM     12  C   UNL     1     -20.319  33.284  -0.412  1.00  0.00     0.027 A 
ATOM     13  C   UNL     1     -19.715  30.251   1.462  1.00  0.00    -0.014 A 
ATOM     14  C   UNL     1     -18.035  31.693   0.095  1.00  0.00     0.021 A 
ATOM     15  C   UNL     1     -19.084  33.609  -0.928  1.00  0.00     0.012 A 
BRANCH   8  16
ATOM     16  C   UNL     1     -22.835  32.133   0.912  1.00  0.00     0.119 C 
ATOM     17  C   UNL     1     -23.349  31.978  -0.491  1.00  0.00     0.027 C 
ENDBRANCH   8  16
BRANCH  10  18
ATOM     18  C   UNL     1     -21.986  29.551   2.413  1.00  0.00     0.025 A 
ATOM     19  C   UNL     1     -22.754  28.544   1.784  1.00  0.00     0.078 A 
ATOM     20  C   UNL     1     -22.101  29.722   3.790  1.00  0.00     0.039 A 
ATOM     21  N   UNL     1     -23.580  27.764   2.494  1.00  0.00    -0.256 NA
ATOM     22  C   UNL     1     -22.973  28.917   4.506  1.00  0.00     0.056 A 
ATOM     23  C   UNL     1     -23.684  27.943   3.822  1.00  0.00     0.137 A 
BRANCH  19  24
ATOM     24  C   UNL     1     -22.712  28.281   0.289  1.00  0.00     0.164 C 
ATOM     25  C   UNL     1     -24.029  28.698  -0.331  1.00  0.00     0.045 C 
BRANCH  24  26
ATOM     26  O   UNL     1     -22.550  26.875   0.098  1.00  0.00    -0.375 OA
ATOM     27  C   UNL     1     -22.651  26.469  -1.258  1.00  0.00     0.195 C 
ENDBRANCH  24  26
ENDBRANCH  19  24
BRANCH  22  28
ATOM     28  N   UNL     1     -23.092  29.049   5.878  1.00  0.00    -0.368 N 
ATOM     29  C   UNL     1     -24.100  28.304   6.649  1.00  0.00     0.132 C 
ATOM     30  C   UNL     1     -22.102  29.803   6.655  1.00  0.00     0.132 C 
ATOM     31  C   UNL     1     -24.562  29.043   7.886  1.00  0.00     0.105 C 
ATOM     32  C   UNL     1     -22.692  30.474   7.873  1.00  0.00     0.105 C 
ATOM     33  N   UNL     1     -23.425  29.504   8.678  1.00  0.00    -0.303 NA
ATOM     34  C   UNL     1     -23.870  30.114   9.932  1.00  0.00     0.105 C 
ENDBRANCH  22  28
ENDBRANCH  10  18
BRANCH  13  35
ATOM     35  C   UNL     1     -18.864  29.121   1.972  1.00  0.00     0.048 C 
BRANCH  35  36
ATOM     36  C   UNL     1     -18.710  27.933   1.011  1.00  0.00     0.003 CG0
ATOM     37  C   UNL     1     -19.326  28.358  -0.322  1.00  0.00     0.015 C 
ATOM     38  C   UNL     1     -19.464  26.704   1.528  1.00  0.00     0.015 C 
ATOM     39  G   UNL     1     -17.241  27.572   0.811  1.00  0.00     0.000 G0
ENDBRANCH  35  36
ENDBRANCH  13  35
ENDBRANCH   3   7
ENDBRANCH   1   2
BRANCH   1  40
ATOM     40  C   UNL     1     -12.725  31.737  -2.891  1.00  0.00     0.179 C 
BRANCH  40  41
ATOM     41  C   UNL     1     -12.381  30.258  -2.863  1.00  0.00     0.259 C 
ATOM     42  O   UNL     1     -11.256  29.847  -3.120  1.00  0.00    -0.271 OA
BRANCH  41  43
ATOM     43  N   UNL     1     -13.394  29.373  -2.599  1.00  0.00    -0.275 N 
ATOM     44  C   UNL     1     -14.326  28.860  -3.615  1.00  0.00     0.140 C 
ATOM     45  N   UNL     1     -13.602  28.934  -1.271  1.00  0.00    -0.218 NA
ATOM     46  C   UNL     1     -15.708  29.362  -3.244  1.00  0.00     0.025 C 
ATOM     47  C   UNL     1     -14.943  29.350  -0.827  1.00  0.00     0.184 C 
ATOM     48  C   UNL     1     -16.029  28.912  -1.822  1.00  0.00     0.035 C 
ATOM     49  H   UNL     1     -13.529  27.908  -1.232  1.00  0.00     0.149 HD
BRANCH  47  50
ATOM     50  C   UNL     1     -15.210  28.755   0.533  1.00  0.00     0.324 C 
ATOM     51  O   UNL     1     -14.366  28.249   1.235  1.00  0.00    -0.250 OA
BRANCH  50  52
ATOM     52  O   UNL     1     -16.503  28.844   0.865  1.00  0.00    -0.464 OA
BRANCH  52  53
ATOM     53  C   UNL     1     -17.238  27.587   0.808  1.00  0.00     0.239 CG0
ATOM     54  G   UNL     1     -18.704  27.953   1.017  1.00  0.00     0.000 G0
ENDBRANCH  52  53
ENDBRANCH  50  52
ENDBRANCH  47  50
ENDBRANCH  41  43
ENDBRANCH  40  41
BRANCH  40  55
ATOM     55  N   UNL     1     -13.715  32.062  -3.903  1.00  0.00    -0.344 N 
ATOM     56  C   UNL     1     -13.372  32.260  -5.186  1.00  0.00     0.224 C 
ATOM     57  O   UNL     1     -12.211  32.448  -5.539  1.00  0.00    -0.275 OA
ATOM     58  H   UNL     1     -14.704  32.143  -3.630  1.00  0.00     0.164 HD
BRANCH  56  59
ATOM     59  C   UNL     1     -14.461  32.149  -6.176  1.00  0.00     0.081 C 
ATOM     60  C   UNL     1     -15.868  32.207  -5.650  1.00  0.00     0.018 C 
ATOM     61  C   UNL     1     -15.343  33.367  -6.412  1.00  0.00    -0.001 C 
ATOM     62  C   UNL     1     -15.870  33.693  -7.793  1.00  0.00     0.008 C 
ENDBRANCH  56  59
ENDBRANCH  40  55
ENDBRANCH   1  40
TORSDOF 7
ENDMDL
MODEL 20
REMARK VINA RESULT:    -6.283      3.090     10.651
REMARK INTER + INTRA:         -15.970
REMARK INTER:                 -13.431
REMARK INTRA:                  -2.539
REMARK UNBOUND:                -3.444
REMARK SMILES CCn1c(-c2cc(N3CCN(C)CC3)cnc2[C@H](C)OC)c2c3cc(ccc31)-c1csc(n1)C[C@H](NC(=O)[C@H]1C[C@@H]1C)C(=O)N1CCC[C@H](N1)C(=O)OCC(C)(C)C2
REMARK SMILES IDX 34 1 32 2 29 3 30 4 33 5 31 6 25 7 3 8 28 9 4 10 23 11 27 12
REMARK SMILES IDX 22 13 24 14 26 15 2 16 1 17 5 18 17 19 6 20 16 21 7 22 15 23
REMARK SMILES IDX 18 24 19 25 20 26 21 27 8 28 14 29 9 30 13 31 10 32 11 33
REMARK SMILES IDX 12 34 58 35 55 36 56 37 57 38 35 40 43 41 44 42 45 43 46 44
REMARK SMILES IDX 50 45 47 46 49 47 48 48 51 50 52 51 53 52 54 53 36 55 37 56
REMARK SMILES IDX 38 57 39 59 40 60 41 61 42 62
REMARK H PARENT 50 49 36 58
REMARK Flexibility Score:  160.900
ROOT
ATOM      1  C   UNL     1     -22.317  30.045   3.439  1.00  0.00     0.102 C 
ENDROOT
BRANCH   1   2
ATOM      2  C   UNL     1     -22.043  30.989   2.310  1.00  0.00     0.096 A 
ATOM      3  C   UNL     1     -20.889  32.146   0.821  1.00  0.00     0.081 A 
ATOM      4  C   UNL     1     -22.128  32.573   0.478  1.00  0.00     0.095 A 
ATOM      5  N   UNL     1     -20.839  31.298   1.922  1.00  0.00    -0.241 NA
ATOM      6  S   UNL     1     -23.304  31.729   1.387  1.00  0.00    -0.127 S 
BRANCH   3   7
ATOM      7  C   UNL     1     -19.605  32.471   0.171  1.00  0.00     0.002 A 
ATOM      8  N   UNL     1     -16.040  33.210  -1.762  1.00  0.00    -0.340 N 
ATOM      9  C   UNL     1     -17.233  33.138  -1.071  1.00  0.00     0.049 A 
ATOM     10  C   UNL     1     -15.646  31.930  -2.110  1.00  0.00     0.054 A 
ATOM     11  C   UNL     1     -17.617  31.786  -0.999  1.00  0.00     0.004 A 
ATOM     12  C   UNL     1     -18.019  34.163  -0.553  1.00  0.00     0.027 A 
ATOM     13  C   UNL     1     -16.602  31.023  -1.654  1.00  0.00    -0.014 A 
ATOM     14  C   UNL     1     -18.822  31.456  -0.369  1.00  0.00     0.021 A 
ATOM     15  C   UNL     1     -19.193  33.799   0.069  1.00  0.00     0.012 A 
BRANCH   8  16
ATOM     16  C   UNL     1     -15.322  34.463  -1.983  1.00  0.00     0.119 C 
ATOM     17  C   UNL     1     -16.019  35.275  -3.037  1.00  0.00     0.027 C 
ENDBRANCH   8  16
BRANCH  10  18
ATOM     18  C   UNL     1     -14.380  31.614  -2.778  1.00  0.00     0.025 A 
ATOM     19  C   UNL     1     -14.106  31.976  -4.117  1.00  0.00     0.078 A 
ATOM     20  C   UNL     1     -13.413  30.913  -2.061  1.00  0.00     0.039 A 
ATOM     21  N   UNL     1     -12.939  31.656  -4.693  1.00  0.00    -0.256 NA
ATOM     22  C   UNL     1     -12.219  30.575  -2.678  1.00  0.00     0.056 A 
ATOM     23  C   UNL     1     -12.017  30.975  -3.989  1.00  0.00     0.137 A 
BRANCH  19  24
ATOM     24  C   UNL     1     -15.092  32.731  -4.992  1.00  0.00     0.164 C 
ATOM     25  C   UNL     1     -16.111  31.761  -5.551  1.00  0.00     0.045 C 
BRANCH  24  26
ATOM     26  O   UNL     1     -14.364  33.297  -6.082  1.00  0.00    -0.375 OA
ATOM     27  C   UNL     1     -15.072  33.276  -7.312  1.00  0.00     0.195 C 
ENDBRANCH  24  26
ENDBRANCH  19  24
BRANCH  22  28
ATOM     28  N   UNL     1     -11.232  29.898  -1.983  1.00  0.00    -0.368 N 
ATOM     29  C   UNL     1     -10.937  30.182  -0.570  1.00  0.00     0.132 C 
ATOM     30  C   UNL     1     -10.553  28.738  -2.571  1.00  0.00     0.132 C 
ATOM     31  C   UNL     1      -9.490  29.932  -0.207  1.00  0.00     0.105 C 
ATOM     32  C   UNL     1      -9.122  28.593  -2.110  1.00  0.00     0.105 C 
ATOM     33  N   UNL     1      -9.058  28.610  -0.653  1.00  0.00    -0.303 NA
ATOM     34  C   UNL     1      -7.697  28.320  -0.199  1.00  0.00     0.105 C 
ENDBRANCH  22  28
ENDBRANCH  10  18
BRANCH  13  35
ATOM     35  C   UNL     1     -16.566  29.527  -1.786  1.00  0.00     0.048 C 
BRANCH  35  36
ATOM     36  C   UNL     1     -17.542  28.936  -2.814  1.00  0.00     0.003 CG0
ATOM     37  C   UNL     1     -16.724  28.022  -3.727  1.00  0.00     0.015 C 
ATOM     38  C   UNL     1     -18.178  30.038  -3.668  1.00  0.00     0.015 C 
ATOM     39  G   UNL     1     -18.645  28.133  -2.130  1.00  0.00     0.000 G0
ENDBRANCH  35  36
ENDBRANCH  13  35
ENDBRANCH   3   7
ENDBRANCH   1   2
BRANCH   1  40
ATOM     40  C   UNL     1     -23.128  28.831   2.960  1.00  0.00     0.179 C 
BRANCH  40  41
ATOM     41  C   UNL     1     -22.320  28.066   1.926  1.00  0.00     0.259 C 
ATOM     42  O   UNL     1     -21.251  27.534   2.199  1.00  0.00    -0.271 OA
BRANCH  41  43
ATOM     43  N   UNL     1     -22.794  28.040   0.640  1.00  0.00    -0.275 N 
ATOM     44  C   UNL     1     -24.036  27.365   0.232  1.00  0.00     0.140 C 
ATOM     45  N   UNL     1     -22.048  28.665  -0.386  1.00  0.00    -0.218 NA
ATOM     46  C   UNL     1     -23.643  26.244  -0.709  1.00  0.00     0.025 C 
ATOM     47  C   UNL     1     -21.644  27.653  -1.377  1.00  0.00     0.184 C 
ATOM     48  C   UNL     1     -22.847  26.833  -1.870  1.00  0.00     0.035 C 
ATOM     49  H   UNL     1     -22.626  29.383  -0.845  1.00  0.00     0.149 HD
BRANCH  47  50
ATOM     50  C   UNL     1     -20.975  28.348  -2.537  1.00  0.00     0.324 C 
ATOM     51  O   UNL     1     -21.395  28.342  -3.670  1.00  0.00    -0.250 OA
BRANCH  50  52
ATOM     52  O   UNL     1     -19.850  28.966  -2.160  1.00  0.00    -0.464 OA
BRANCH  52  53
ATOM     53  C   UNL     1     -18.663  28.121  -2.143  1.00  0.00     0.239 CG0
ATOM     54  G   UNL     1     -17.565  28.935  -2.820  1.00  0.00     0.000 G0
ENDBRANCH  52  53
ENDBRANCH  50  52
ENDBRANCH  47  50
ENDBRANCH  41  43
ENDBRANCH  40  41
BRANCH  40  55
ATOM     55  N   UNL     1     -23.560  27.993   4.065  1.00  0.00    -0.344 N 
ATOM     56  C   UNL     1     -24.773  27.418   4.080  1.00  0.00     0.224 C 
ATOM     57  O   UNL     1     -25.679  27.764   3.327  1.00  0.00    -0.275 OA
ATOM     58  H   UNL     1     -22.920  27.835   4.855  1.00  0.00     0.164 HD
BRANCH  56  59
ATOM     59  C   UNL     1     -24.939  26.272   4.995  1.00  0.00     0.081 C 
ATOM     60  C   UNL     1     -25.659  25.067   4.455  1.00  0.00     0.018 C 
ATOM     61  C   UNL     1     -24.194  24.984   4.674  1.00  0.00    -0.001 C 
ATOM     62  C   UNL     1     -23.621  24.119   5.776  1.00  0.00     0.008 C 
ENDBRANCH  56  59
ENDBRANCH  40  55
ENDBRANCH   1  40
TORSDOF 7
ENDMDL
