MODEL 1
REMARK VINA RESULT:    -5.096      0.000      0.000
REMARK INTER + INTRA:         -14.583
REMARK INTER:                 -10.160
REMARK INTRA:                  -4.423
REMARK UNBOUND:                -4.423
REMARK SMILES CCn1c(-c2cc(N3CCN(C)CC3)cnc2[C@H](C)OC)c2c3cc(ccc31)-c1csc(n1)C[C@H](NC(=O)[C@H]1C[C@@H]1C)C(=O)N1CCC[C@H](N1)C(=O)OCC(C)(C)C2
REMARK SMILES IDX 34 1 32 2 29 3 30 4 33 5 31 6 25 7 3 8 28 9 4 10 23 11 27 12
REMARK SMILES IDX 22 13 24 14 26 15 2 16 1 17 5 18 17 19 6 20 16 21 7 22 15 23
REMARK SMILES IDX 18 24 19 25 20 26 21 27 8 28 14 29 9 30 13 31 10 32 11 33
REMARK SMILES IDX 12 34 58 35 55 36 56 37 57 38 35 40 43 41 44 42 45 43 46 44
REMARK SMILES IDX 50 45 47 46 49 47 48 48 51 50 52 51 53 52 54 53 36 55 37 56
REMARK SMILES IDX 38 57 39 59 40 60 41 61 42 62
REMARK H PARENT 50 49 36 58
REMARK Flexibility Score:  160.900
ROOT
ATOM      1  C   UNL     1     -31.022 -26.061   3.736  1.00  0.00     0.102 C 
ENDROOT
BRANCH   1   2
ATOM      2  C   UNL     1     -30.469 -25.450   4.985  1.00  0.00     0.096 A 
ATOM      3  C   UNL     1     -29.226 -24.152   6.274  1.00  0.00     0.081 A 
ATOM      4  C   UNL     1     -29.919 -24.785   7.250  1.00  0.00     0.095 A 
ATOM      5  N   UNL     1     -29.490 -24.592   4.981  1.00  0.00    -0.241 NA
ATOM      6  S   UNL     1     -31.107 -25.799   6.554  1.00  0.00    -0.127 S 
BRANCH   3   7
ATOM      7  C   UNL     1     -28.240 -23.065   6.419  1.00  0.00     0.002 A 
ATOM      8  N   UNL     1     -25.558 -19.943   6.654  1.00  0.00    -0.340 N 
ATOM      9  C   UNL     1     -26.428 -21.011   6.753  1.00  0.00     0.049 A 
ATOM     10  C   UNL     1     -25.404 -19.612   5.318  1.00  0.00     0.054 A 
ATOM     11  C   UNL     1     -26.853 -21.351   5.455  1.00  0.00     0.004 A 
ATOM     12  C   UNL     1     -26.904 -21.663   7.886  1.00  0.00     0.027 A 
ATOM     13  C   UNL     1     -26.195 -20.464   4.549  1.00  0.00    -0.014 A 
ATOM     14  C   UNL     1     -27.774 -22.392   5.295  1.00  0.00     0.021 A 
ATOM     15  C   UNL     1     -27.800 -22.690   7.688  1.00  0.00     0.012 A 
BRANCH   8  16
ATOM     16  C   UNL     1     -24.882 -19.357   7.809  1.00  0.00     0.119 C 
ATOM     17  C   UNL     1     -23.896 -20.337   8.378  1.00  0.00     0.027 C 
ENDBRANCH   8  16
BRANCH  10  18
ATOM     18  C   UNL     1     -24.486 -18.580   4.829  1.00  0.00     0.025 A 
ATOM     19  C   UNL     1     -23.137 -18.844   4.499  1.00  0.00     0.078 A 
ATOM     20  C   UNL     1     -24.966 -17.279   4.700  1.00  0.00     0.039 A 
ATOM     21  N   UNL     1     -22.329 -17.867   4.067  1.00  0.00    -0.256 NA
ATOM     22  C   UNL     1     -24.111 -16.278   4.268  1.00  0.00     0.056 A 
ATOM     23  C   UNL     1     -22.805 -16.615   3.950  1.00  0.00     0.137 A 
BRANCH  19  24
ATOM     24  C   UNL     1     -22.509 -20.223   4.614  1.00  0.00     0.164 C 
ATOM     25  C   UNL     1     -21.007 -20.082   4.741  1.00  0.00     0.045 C 
BRANCH  24  26
ATOM     26  O   UNL     1     -22.794 -20.934   3.409  1.00  0.00    -0.375 OA
ATOM     27  C   UNL     1     -22.636 -22.339   3.525  1.00  0.00     0.195 C 
ENDBRANCH  24  26
ENDBRANCH  19  24
BRANCH  22  28
ATOM     28  N   UNL     1     -24.566 -14.980   4.109  1.00  0.00    -0.368 N 
ATOM     29  C   UNL     1     -24.136 -14.134   2.985  1.00  0.00     0.132 C 
ATOM     30  C   UNL     1     -25.640 -14.446   4.954  1.00  0.00     0.132 C 
ATOM     31  C   UNL     1     -24.120 -12.660   3.327  1.00  0.00     0.105 C 
ATOM     32  C   UNL     1     -25.515 -12.961   5.200  1.00  0.00     0.105 C 
ATOM     33  N   UNL     1     -25.382 -12.249   3.934  1.00  0.00    -0.303 NA
ATOM     34  C   UNL     1     -25.413 -10.802   4.157  1.00  0.00     0.105 C 
ENDBRANCH  22  28
ENDBRANCH  10  18
BRANCH  13  35
ATOM     35  C   UNL     1     -26.313 -20.483   3.050  1.00  0.00     0.048 C 
BRANCH  35  36
ATOM     36  C   UNL     1     -27.378 -19.544   2.465  1.00  0.00     0.003 CG0
ATOM     37  C   UNL     1     -26.636 -18.491   1.642  1.00  0.00     0.015 C 
ATOM     38  C   UNL     1     -28.159 -18.835   3.576  1.00  0.00     0.015 C 
ATOM     39  G   UNL     1     -28.354 -20.305   1.573  1.00  0.00     0.000 G0
ENDBRANCH  35  36
ENDBRANCH  13  35
ENDBRANCH   3   7
ENDBRANCH   1   2
BRANCH   1  40
ATOM     40  C   UNL     1     -30.186 -27.272   3.296  1.00  0.00     0.179 C 
BRANCH  40  41
ATOM     41  C   UNL     1     -29.844 -27.135   1.822  1.00  0.00     0.259 C 
ATOM     42  O   UNL     1     -30.390 -27.814   0.961  1.00  0.00    -0.271 OA
BRANCH  41  43
ATOM     43  N   UNL     1     -28.846 -26.260   1.479  1.00  0.00    -0.275 N 
ATOM     44  C   UNL     1     -27.410 -26.549   1.622  1.00  0.00     0.140 C 
ATOM     45  N   UNL     1     -29.187 -24.980   0.985  1.00  0.00    -0.218 NA
ATOM     46  C   UNL     1     -26.861 -25.571   2.642  1.00  0.00     0.025 C 
ATOM     47  C   UNL     1     -28.664 -23.951   1.899  1.00  0.00     0.184 C 
ATOM     48  C   UNL     1     -27.165 -24.151   2.176  1.00  0.00     0.035 C 
ATOM     49  H   UNL     1     -28.775 -24.850   0.049  1.00  0.00     0.149 HD
BRANCH  47  50
ATOM     50  C   UNL     1     -28.906 -22.592   1.291  1.00  0.00     0.324 C 
ATOM     51  O   UNL     1     -29.825 -22.329   0.552  1.00  0.00    -0.250 OA
BRANCH  50  52
ATOM     52  O   UNL     1     -27.968 -21.712   1.660  1.00  0.00    -0.464 OA
BRANCH  52  53
ATOM     53  C   UNL     1     -28.373 -20.315   1.575  1.00  0.00     0.239 CG0
ATOM     54  G   UNL     1     -27.390 -19.544   2.452  1.00  0.00     0.000 G0
ENDBRANCH  52  53
ENDBRANCH  50  52
ENDBRANCH  47  50
ENDBRANCH  41  43
ENDBRANCH  40  41
BRANCH  40  55
ATOM     55  N   UNL     1     -29.010 -27.455   4.129  1.00  0.00    -0.344 N 
ATOM     56  C   UNL     1     -28.747 -28.628   4.728  1.00  0.00     0.224 C 
ATOM     57  O   UNL     1     -29.587 -29.516   4.841  1.00  0.00    -0.275 OA
ATOM     58  H   UNL     1     -28.362 -26.667   4.262  1.00  0.00     0.164 HD
BRANCH  56  59
ATOM     59  C   UNL     1     -27.354 -28.835   5.170  1.00  0.00     0.081 C 
ATOM     60  C   UNL     1     -26.626 -27.638   5.713  1.00  0.00     0.018 C 
ATOM     61  C   UNL     1     -27.046 -28.705   6.655  1.00  0.00    -0.001 C 
ATOM     62  C   UNL     1     -26.022 -29.600   7.321  1.00  0.00     0.008 C 
ENDBRANCH  56  59
ENDBRANCH  40  55
ENDBRANCH   1  40
TORSDOF 7
ENDMDL
MODEL 2
REMARK VINA RESULT:    -4.839      5.524     11.186
REMARK INTER + INTRA:         -14.071
REMARK INTER:                 -10.039
REMARK INTRA:                  -4.032
REMARK UNBOUND:                -4.423
REMARK SMILES CCn1c(-c2cc(N3CCN(C)CC3)cnc2[C@H](C)OC)c2c3cc(ccc31)-c1csc(n1)C[C@H](NC(=O)[C@H]1C[C@@H]1C)C(=O)N1CCC[C@H](N1)C(=O)OCC(C)(C)C2
REMARK SMILES IDX 34 1 32 2 29 3 30 4 33 5 31 6 25 7 3 8 28 9 4 10 23 11 27 12
REMARK SMILES IDX 22 13 24 14 26 15 2 16 1 17 5 18 17 19 6 20 16 21 7 22 15 23
REMARK SMILES IDX 18 24 19 25 20 26 21 27 8 28 14 29 9 30 13 31 10 32 11 33
REMARK SMILES IDX 12 34 58 35 55 36 56 37 57 38 35 40 43 41 44 42 45 43 46 44
REMARK SMILES IDX 50 45 47 46 49 47 48 48 51 50 52 51 53 52 54 53 36 55 37 56
REMARK SMILES IDX 38 57 39 59 40 60 41 61 42 62
REMARK H PARENT 50 49 36 58
REMARK Flexibility Score:  160.900
ROOT
ATOM      1  C   UNL     1     -16.281 -15.098   3.631  1.00  0.00     0.102 C 
ENDROOT
BRANCH   1   2
ATOM      2  C   UNL     1     -17.597 -14.392   3.533  1.00  0.00     0.096 A 
ATOM      3  C   UNL     1     -19.785 -14.084   3.605  1.00  0.00     0.081 A 
ATOM      4  C   UNL     1     -19.427 -12.829   3.244  1.00  0.00     0.095 A 
ATOM      5  N   UNL     1     -18.739 -14.996   3.695  1.00  0.00    -0.241 NA
ATOM      6  S   UNL     1     -17.723 -12.694   3.233  1.00  0.00    -0.127 S 
BRANCH   3   7
ATOM      7  C   UNL     1     -21.137 -14.589   3.913  1.00  0.00     0.002 A 
ATOM      8  N   UNL     1     -24.841 -16.192   4.753  1.00  0.00    -0.340 N 
ATOM      9  C   UNL     1     -23.659 -15.505   4.555  1.00  0.00     0.049 A 
ATOM     10  C   UNL     1     -24.786 -17.388   4.059  1.00  0.00     0.054 A 
ATOM     11  C   UNL     1     -22.828 -16.292   3.736  1.00  0.00     0.004 A 
ATOM     12  C   UNL     1     -23.249 -14.281   5.074  1.00  0.00     0.027 A 
ATOM     13  C   UNL     1     -23.551 -17.482   3.419  1.00  0.00    -0.014 A 
ATOM     14  C   UNL     1     -21.549 -15.821   3.417  1.00  0.00     0.021 A 
ATOM     15  C   UNL     1     -21.988 -13.845   4.729  1.00  0.00     0.012 A 
BRANCH   8  16
ATOM     16  C   UNL     1     -25.959 -15.646   5.519  1.00  0.00     0.119 C 
ATOM     17  C   UNL     1     -25.870 -16.096   6.950  1.00  0.00     0.027 C 
ENDBRANCH   8  16
BRANCH  10  18
ATOM     18  C   UNL     1     -25.900 -18.337   3.970  1.00  0.00     0.025 A 
ATOM     19  C   UNL     1     -26.002 -19.483   4.792  1.00  0.00     0.078 A 
ATOM     20  C   UNL     1     -26.892 -18.100   3.022  1.00  0.00     0.039 A 
ATOM     21  N   UNL     1     -27.031 -20.331   4.668  1.00  0.00    -0.256 NA
ATOM     22  C   UNL     1     -27.942 -18.997   2.896  1.00  0.00     0.056 A 
ATOM     23  C   UNL     1     -27.980 -20.092   3.746  1.00  0.00     0.137 A 
BRANCH  19  24
ATOM     24  C   UNL     1     -24.970 -19.841   5.848  1.00  0.00     0.164 C 
ATOM     25  C   UNL     1     -24.652 -21.318   5.759  1.00  0.00     0.045 C 
BRANCH  24  26
ATOM     26  O   UNL     1     -25.549 -19.582   7.128  1.00  0.00    -0.375 OA
ATOM     27  C   UNL     1     -24.642 -19.012   8.058  1.00  0.00     0.195 C 
ENDBRANCH  24  26
ENDBRANCH  19  24
BRANCH  22  28
ATOM     28  N   UNL     1     -28.953 -18.776   1.978  1.00  0.00    -0.368 N 
ATOM     29  C   UNL     1     -28.704 -18.123   0.684  1.00  0.00     0.132 C 
ATOM     30  C   UNL     1     -30.291 -19.345   2.175  1.00  0.00     0.132 C 
ATOM     31  C   UNL     1     -29.899 -17.351   0.171  1.00  0.00     0.105 C 
ATOM     32  C   UNL     1     -31.391 -18.485   1.599  1.00  0.00     0.105 C 
ATOM     33  N   UNL     1     -31.107 -18.171   0.203  1.00  0.00    -0.303 NA
ATOM     34  C   UNL     1     -32.238 -17.466  -0.401  1.00  0.00     0.105 C 
ENDBRANCH  22  28
ENDBRANCH  10  18
BRANCH  13  35
ATOM     35  C   UNL     1     -23.074 -18.598   2.533  1.00  0.00     0.048 C 
BRANCH  35  36
ATOM     36  C   UNL     1     -22.017 -19.523   3.155  1.00  0.00     0.003 CG0
ATOM     37  C   UNL     1     -22.522 -20.955   2.979  1.00  0.00     0.015 C 
ATOM     38  C   UNL     1     -21.852 -19.244   4.652  1.00  0.00     0.015 C 
ATOM     39  G   UNL     1     -20.667 -19.361   2.463  1.00  0.00     0.000 G0
ENDBRANCH  35  36
ENDBRANCH  13  35
ENDBRANCH   3   7
ENDBRANCH   1   2
BRANCH   1  40
ATOM     40  C   UNL     1     -16.295 -16.407   2.826  1.00  0.00     0.179 C 
BRANCH  40  41
ATOM     41  C   UNL     1     -15.975 -16.103   1.372  1.00  0.00     0.259 C 
ATOM     42  O   UNL     1     -14.859 -15.750   1.012  1.00  0.00    -0.271 OA
BRANCH  41  43
ATOM     43  N   UNL     1     -17.001 -16.175   0.467  1.00  0.00    -0.275 N 
ATOM     44  C   UNL     1     -17.435 -15.052  -0.379  1.00  0.00     0.140 C 
ATOM     45  N   UNL     1     -17.728 -17.381   0.338  1.00  0.00    -0.218 NA
ATOM     46  C   UNL     1     -18.852 -14.707   0.035  1.00  0.00     0.025 C 
ATOM     47  C   UNL     1     -19.137 -17.139   0.691  1.00  0.00     0.184 C 
ATOM     48  C   UNL     1     -19.721 -15.954  -0.094  1.00  0.00     0.035 C 
ATOM     49  H   UNL     1     -17.670 -17.717  -0.634  1.00  0.00     0.149 HD
BRANCH  47  50
ATOM     50  C   UNL     1     -19.930 -18.391   0.413  1.00  0.00     0.324 C 
ATOM     51  O   UNL     1     -19.685 -19.171  -0.477  1.00  0.00    -0.250 OA
BRANCH  50  52
ATOM     52  O   UNL     1     -20.950 -18.530   1.268  1.00  0.00    -0.464 OA
BRANCH  52  53
ATOM     53  C   UNL     1     -20.663 -19.354   2.435  1.00  0.00     0.239 CG0
ATOM     54  G   UNL     1     -21.995 -19.531   3.156  1.00  0.00     0.000 G0
ENDBRANCH  52  53
ENDBRANCH  50  52
ENDBRANCH  47  50
ENDBRANCH  41  43
ENDBRANCH  40  41
BRANCH  40  55
ATOM     55  N   UNL     1     -15.410 -17.408   3.397  1.00  0.00    -0.344 N 
ATOM     56  C   UNL     1     -15.508 -18.706   3.065  1.00  0.00     0.224 C 
ATOM     57  O   UNL     1     -16.489 -19.169   2.491  1.00  0.00    -0.275 OA
ATOM     58  H   UNL     1     -14.690 -17.115   4.072  1.00  0.00     0.164 HD
BRANCH  56  59
ATOM     59  C   UNL     1     -14.324 -19.541   3.346  1.00  0.00     0.081 C 
ATOM     60  C   UNL     1     -12.978 -18.912   3.118  1.00  0.00     0.018 C 
ATOM     61  C   UNL     1     -13.429 -19.145   4.512  1.00  0.00    -0.001 C 
ATOM     62  C   UNL     1     -12.766 -20.196   5.378  1.00  0.00     0.008 C 
ENDBRANCH  56  59
ENDBRANCH  40  55
ENDBRANCH   1  40
TORSDOF 7
ENDMDL
MODEL 3
REMARK VINA RESULT:    -4.831      4.115      7.761
REMARK INTER + INTRA:         -14.054
REMARK INTER:                 -10.478
REMARK INTRA:                  -3.577
REMARK UNBOUND:                -4.423
REMARK SMILES CCn1c(-c2cc(N3CCN(C)CC3)cnc2[C@H](C)OC)c2c3cc(ccc31)-c1csc(n1)C[C@H](NC(=O)[C@H]1C[C@@H]1C)C(=O)N1CCC[C@H](N1)C(=O)OCC(C)(C)C2
REMARK SMILES IDX 34 1 32 2 29 3 30 4 33 5 31 6 25 7 3 8 28 9 4 10 23 11 27 12
REMARK SMILES IDX 22 13 24 14 26 15 2 16 1 17 5 18 17 19 6 20 16 21 7 22 15 23
REMARK SMILES IDX 18 24 19 25 20 26 21 27 8 28 14 29 9 30 13 31 10 32 11 33
REMARK SMILES IDX 12 34 58 35 55 36 56 37 57 38 35 40 43 41 44 42 45 43 46 44
REMARK SMILES IDX 50 45 47 46 49 47 48 48 51 50 52 51 53 52 54 53 36 55 37 56
REMARK SMILES IDX 38 57 39 59 40 60 41 61 42 62
REMARK H PARENT 50 49 36 58
REMARK Flexibility Score:  160.900
ROOT
ATOM      1  C   UNL     1     -23.987 -22.168   7.247  1.00  0.00     0.102 C 
ENDROOT
BRANCH   1   2
ATOM      2  C   UNL     1     -25.415 -22.386   6.858  1.00  0.00     0.096 A 
ATOM      3  C   UNL     1     -27.253 -22.330   5.630  1.00  0.00     0.081 A 
ATOM      4  C   UNL     1     -27.762 -22.975   6.706  1.00  0.00     0.095 A 
ATOM      5  N   UNL     1     -25.927 -21.926   5.753  1.00  0.00    -0.241 NA
ATOM      6  S   UNL     1     -26.513 -23.307   7.826  1.00  0.00    -0.127 S 
BRANCH   3   7
ATOM      7  C   UNL     1     -27.930 -22.012   4.358  1.00  0.00     0.002 A 
ATOM      8  N   UNL     1     -29.732 -20.937   0.810  1.00  0.00    -0.340 N 
ATOM      9  C   UNL     1     -29.158 -21.469   1.948  1.00  0.00     0.049 A 
ATOM     10  C   UNL     1     -29.826 -19.564   0.954  1.00  0.00     0.054 A 
ATOM     11  C   UNL     1     -28.860 -20.408   2.823  1.00  0.00     0.004 A 
ATOM     12  C   UNL     1     -28.839 -22.790   2.244  1.00  0.00     0.027 A 
ATOM     13  C   UNL     1     -29.292 -19.203   2.190  1.00  0.00    -0.014 A 
ATOM     14  C   UNL     1     -28.235 -20.692   4.043  1.00  0.00     0.021 A 
ATOM     15  C   UNL     1     -28.234 -23.032   3.458  1.00  0.00     0.012 A 
BRANCH   8  16
ATOM     16  C   UNL     1     -30.215 -21.760  -0.297  1.00  0.00     0.119 C 
ATOM     17  C   UNL     1     -29.235 -21.718  -1.434  1.00  0.00     0.027 C 
ENDBRANCH   8  16
BRANCH  10  18
ATOM     18  C   UNL     1     -30.464 -18.678  -0.023  1.00  0.00     0.025 A 
ATOM     19  C   UNL     1     -31.865 -18.612  -0.202  1.00  0.00     0.078 A 
ATOM     20  C   UNL     1     -29.648 -17.877  -0.818  1.00  0.00     0.039 A 
ATOM     21  N   UNL     1     -32.406 -17.796  -1.117  1.00  0.00    -0.256 NA
ATOM     22  C   UNL     1     -30.223 -17.052  -1.771  1.00  0.00     0.056 A 
ATOM     23  C   UNL     1     -31.605 -17.031  -1.880  1.00  0.00     0.137 A 
BRANCH  19  24
ATOM     24  C   UNL     1     -32.845 -19.449   0.603  1.00  0.00     0.164 C 
ATOM     25  C   UNL     1     -34.256 -19.145   0.148  1.00  0.00     0.045 C 
BRANCH  24  26
ATOM     26  O   UNL     1     -32.722 -19.067   1.973  1.00  0.00    -0.375 OA
ATOM     27  C   UNL     1     -33.825 -19.460   2.775  1.00  0.00     0.195 C 
ENDBRANCH  24  26
ENDBRANCH  19  24
BRANCH  22  28
ATOM     28  N   UNL     1     -29.438 -16.229  -2.560  1.00  0.00    -0.368 N 
ATOM     29  C   UNL     1     -28.695 -16.740  -3.723  1.00  0.00     0.132 C 
ATOM     30  C   UNL     1     -29.451 -14.773  -2.383  1.00  0.00     0.132 C 
ATOM     31  C   UNL     1     -27.424 -15.968  -3.998  1.00  0.00     0.105 C 
ATOM     32  C   UNL     1     -28.126 -14.125  -2.710  1.00  0.00     0.105 C 
ATOM     33  N   UNL     1     -27.681 -14.531  -4.038  1.00  0.00    -0.303 NA
ATOM     34  C   UNL     1     -26.477 -13.792  -4.421  1.00  0.00     0.105 C 
ENDBRANCH  22  28
ENDBRANCH  10  18
BRANCH  13  35
ATOM     35  C   UNL     1     -29.214 -17.820   2.774  1.00  0.00     0.048 C 
BRANCH  35  36
ATOM     36  C   UNL     1     -27.856 -17.119   2.619  1.00  0.00     0.003 CG0
ATOM     37  C   UNL     1     -28.104 -15.848   1.806  1.00  0.00     0.015 C 
ATOM     38  C   UNL     1     -26.863 -18.001   1.855  1.00  0.00     0.015 C 
ATOM     39  G   UNL     1     -27.263 -16.758   3.977  1.00  0.00     0.000 G0
ENDBRANCH  35  36
ENDBRANCH  13  35
ENDBRANCH   3   7
ENDBRANCH   1   2
BRANCH   1  40
ATOM     40  C   UNL     1     -23.061 -22.260   6.024  1.00  0.00     0.179 C 
BRANCH  40  41
ATOM     41  C   UNL     1     -22.397 -20.913   5.797  1.00  0.00     0.259 C 
ATOM     42  O   UNL     1     -21.446 -20.533   6.471  1.00  0.00    -0.271 OA
BRANCH  41  43
ATOM     43  N   UNL     1     -22.936 -20.090   4.843  1.00  0.00    -0.275 N 
ATOM     44  C   UNL     1     -22.292 -19.784   3.556  1.00  0.00     0.140 C 
ATOM     45  N   UNL     1     -24.174 -19.454   5.097  1.00  0.00    -0.218 NA
ATOM     46  C   UNL     1     -21.982 -18.301   3.556  1.00  0.00     0.025 C 
ATOM     47  C   UNL     1     -23.982 -17.994   5.085  1.00  0.00     0.184 C 
ATOM     48  C   UNL     1     -23.275 -17.528   3.802  1.00  0.00     0.035 C 
ATOM     49  H   UNL     1     -24.853 -19.718   4.368  1.00  0.00     0.149 HD
BRANCH  47  50
ATOM     50  C   UNL     1     -25.327 -17.326   5.212  1.00  0.00     0.324 C 
ATOM     51  O   UNL     1     -25.632 -16.571   6.105  1.00  0.00    -0.250 OA
BRANCH  50  52
ATOM     52  O   UNL     1     -26.150 -17.679   4.218  1.00  0.00    -0.464 OA
BRANCH  52  53
ATOM     53  C   UNL     1     -27.263 -16.766   3.990  1.00  0.00     0.239 CG0
ATOM     54  G   UNL     1     -27.824 -17.130   2.619  1.00  0.00     0.000 G0
ENDBRANCH  52  53
ENDBRANCH  50  52
ENDBRANCH  47  50
ENDBRANCH  41  43
ENDBRANCH  40  41
BRANCH  40  55
ATOM     55  N   UNL     1     -22.101 -23.344   6.146  1.00  0.00    -0.344 N 
ATOM     56  C   UNL     1     -22.378 -24.582   5.707  1.00  0.00     0.224 C 
ATOM     57  O   UNL     1     -23.518 -24.947   5.432  1.00  0.00    -0.275 OA
ATOM     58  H   UNL     1     -21.186 -23.158   6.580  1.00  0.00     0.164 HD
BRANCH  56  59
ATOM     59  C   UNL     1     -21.219 -25.467   5.481  1.00  0.00     0.081 C 
ATOM     60  C   UNL     1     -20.313 -25.716   6.654  1.00  0.00     0.018 C 
ATOM     61  C   UNL     1     -21.196 -26.814   6.189  1.00  0.00    -0.001 C 
ATOM     62  C   UNL     1     -20.621 -28.041   5.514  1.00  0.00     0.008 C 
ENDBRANCH  56  59
ENDBRANCH  40  55
ENDBRANCH   1  40
TORSDOF 7
ENDMDL
MODEL 4
REMARK VINA RESULT:    -4.738      4.396      8.640
REMARK INTER + INTRA:         -13.869
REMARK INTER:                  -9.932
REMARK INTRA:                  -3.937
REMARK UNBOUND:                -4.423
REMARK SMILES CCn1c(-c2cc(N3CCN(C)CC3)cnc2[C@H](C)OC)c2c3cc(ccc31)-c1csc(n1)C[C@H](NC(=O)[C@H]1C[C@@H]1C)C(=O)N1CCC[C@H](N1)C(=O)OCC(C)(C)C2
REMARK SMILES IDX 34 1 32 2 29 3 30 4 33 5 31 6 25 7 3 8 28 9 4 10 23 11 27 12
REMARK SMILES IDX 22 13 24 14 26 15 2 16 1 17 5 18 17 19 6 20 16 21 7 22 15 23
REMARK SMILES IDX 18 24 19 25 20 26 21 27 8 28 14 29 9 30 13 31 10 32 11 33
REMARK SMILES IDX 12 34 58 35 55 36 56 37 57 38 35 40 43 41 44 42 45 43 46 44
REMARK SMILES IDX 50 45 47 46 49 47 48 48 51 50 52 51 53 52 54 53 36 55 37 56
REMARK SMILES IDX 38 57 39 59 40 60 41 61 42 62
REMARK H PARENT 50 49 36 58
REMARK Flexibility Score:  160.900
ROOT
ATOM      1  C   UNL     1     -24.995 -18.730   8.078  1.00  0.00     0.102 C 
ENDROOT
BRANCH   1   2
ATOM      2  C   UNL     1     -25.261 -17.461   7.329  1.00  0.00     0.096 A 
ATOM      3  C   UNL     1     -25.826 -16.130   5.657  1.00  0.00     0.081 A 
ATOM      4  C   UNL     1     -25.553 -15.176   6.577  1.00  0.00     0.095 A 
ATOM      5  N   UNL     1     -25.584 -17.437   6.069  1.00  0.00    -0.241 NA
ATOM      6  S   UNL     1     -25.202 -15.906   8.083  1.00  0.00    -0.127 S 
BRANCH   3   7
ATOM      7  C   UNL     1     -26.346 -15.949   4.288  1.00  0.00     0.002 A 
ATOM      8  N   UNL     1     -27.939 -15.589   0.503  1.00  0.00    -0.340 N 
ATOM      9  C   UNL     1     -27.339 -15.543   1.746  1.00  0.00     0.049 A 
ATOM     10  C   UNL     1     -28.427 -16.867   0.288  1.00  0.00     0.054 A 
ATOM     11  C   UNL     1     -27.470 -16.811   2.342  1.00  0.00     0.004 A 
ATOM     12  C   UNL     1     -26.741 -14.471   2.400  1.00  0.00     0.027 A 
ATOM     13  C   UNL     1     -28.155 -17.648   1.409  1.00  0.00    -0.014 A 
ATOM     14  C   UNL     1     -26.966 -17.008   3.633  1.00  0.00     0.021 A 
ATOM     15  C   UNL     1     -26.247 -14.706   3.665  1.00  0.00     0.012 A 
BRANCH   8  16
ATOM     16  C   UNL     1     -27.948 -14.456  -0.419  1.00  0.00     0.119 C 
ATOM     17  C   UNL     1     -29.198 -13.646  -0.225  1.00  0.00     0.027 C 
ENDBRANCH   8  16
BRANCH  10  18
ATOM     18  C   UNL     1     -29.051 -17.307  -0.963  1.00  0.00     0.025 A 
ATOM     19  C   UNL     1     -30.450 -17.446  -1.118  1.00  0.00     0.078 A 
ATOM     20  C   UNL     1     -28.223 -17.614  -2.040  1.00  0.00     0.039 A 
ATOM     21  N   UNL     1     -30.977 -17.864  -2.277  1.00  0.00    -0.256 NA
ATOM     22  C   UNL     1     -28.784 -18.061  -3.225  1.00  0.00     0.056 A 
ATOM     23  C   UNL     1     -30.164 -18.160  -3.307  1.00  0.00     0.137 A 
BRANCH  19  24
ATOM     24  C   UNL     1     -31.442 -17.149  -0.006  1.00  0.00     0.164 C 
ATOM     25  C   UNL     1     -32.738 -17.881  -0.281  1.00  0.00     0.045 C 
BRANCH  24  26
ATOM     26  O   UNL     1     -31.706 -15.746  -0.021  1.00  0.00    -0.375 OA
ATOM     27  C   UNL     1     -32.665 -15.357  -0.993  1.00  0.00     0.195 C 
ENDBRANCH  24  26
ENDBRANCH  19  24
BRANCH  22  28
ATOM     28  N   UNL     1     -27.987 -18.353  -4.319  1.00  0.00    -0.368 N 
ATOM     29  C   UNL     1     -27.485 -19.711  -4.578  1.00  0.00     0.132 C 
ATOM     30  C   UNL     1     -27.752 -17.358  -5.371  1.00  0.00     0.132 C 
ATOM     31  C   UNL     1     -26.155 -19.723  -5.298  1.00  0.00     0.105 C 
ATOM     32  C   UNL     1     -26.395 -17.494  -6.020  1.00  0.00     0.105 C 
ATOM     33  N   UNL     1     -26.189 -18.863  -6.478  1.00  0.00    -0.303 NA
ATOM     34  C   UNL     1     -24.943 -18.965  -7.239  1.00  0.00     0.105 C 
ENDBRANCH  22  28
ENDBRANCH  10  18
BRANCH  13  35
ATOM     35  C   UNL     1     -28.481 -19.103   1.599  1.00  0.00     0.048 C 
BRANCH  35  36
ATOM     36  C   UNL     1     -27.398 -20.084   1.125  1.00  0.00     0.003 CG0
ATOM     37  C   UNL     1     -26.205 -19.242   0.671  1.00  0.00     0.015 C 
ATOM     38  C   UNL     1     -27.890 -20.915  -0.064  1.00  0.00     0.015 C 
ATOM     39  G   UNL     1     -26.972 -21.023   2.250  1.00  0.00     0.000 G0
ENDBRANCH  35  36
ENDBRANCH  13  35
ENDBRANCH   3   7
ENDBRANCH   1   2
BRANCH   1  40
ATOM     40  C   UNL     1     -24.903 -19.928   7.120  1.00  0.00     0.179 C 
BRANCH  40  41
ATOM     41  C   UNL     1     -23.450 -20.346   6.980  1.00  0.00     0.259 C 
ATOM     42  O   UNL     1     -22.660 -20.278   7.914  1.00  0.00    -0.271 OA
BRANCH  41  43
ATOM     43  N   UNL     1     -23.020 -20.750   5.743  1.00  0.00    -0.275 N 
ATOM     44  C   UNL     1     -21.790 -20.265   5.097  1.00  0.00     0.140 C 
ATOM     45  N   UNL     1     -23.803 -21.666   5.003  1.00  0.00    -0.218 NA
ATOM     46  C   UNL     1     -22.212 -19.510   3.852  1.00  0.00     0.025 C 
ATOM     47  C   UNL     1     -24.238 -21.031   3.748  1.00  0.00     0.184 C 
ATOM     48  C   UNL     1     -23.050 -20.435   2.975  1.00  0.00     0.035 C 
ATOM     49  H   UNL     1     -23.244 -22.504   4.789  1.00  0.00     0.149 HD
BRANCH  47  50
ATOM     50  C   UNL     1     -24.948 -22.059   2.903  1.00  0.00     0.324 C 
ATOM     51  O   UNL     1     -24.904 -23.250   3.097  1.00  0.00    -0.250 OA
BRANCH  50  52
ATOM     52  O   UNL     1     -25.628 -21.489   1.901  1.00  0.00    -0.464 OA
BRANCH  52  53
ATOM     53  C   UNL     1     -26.963 -21.025   2.253  1.00  0.00     0.239 CG0
ATOM     54  G   UNL     1     -27.388 -20.089   1.126  1.00  0.00     0.000 G0
ENDBRANCH  52  53
ENDBRANCH  50  52
ENDBRANCH  47  50
ENDBRANCH  41  43
ENDBRANCH  40  41
BRANCH  40  55
ATOM     55  N   UNL     1     -25.764 -21.023   7.532  1.00  0.00    -0.344 N 
ATOM     56  C   UNL     1     -26.686 -21.543   6.705  1.00  0.00     0.224 C 
ATOM     57  O   UNL     1     -27.049 -20.976   5.678  1.00  0.00    -0.275 OA
ATOM     58  H   UNL     1     -25.665 -21.410   8.480  1.00  0.00     0.164 HD
BRANCH  56  59
ATOM     59  C   UNL     1     -27.182 -22.890   7.049  1.00  0.00     0.081 C 
ATOM     60  C   UNL     1     -27.663 -23.100   8.457  1.00  0.00     0.018 C 
ATOM     61  C   UNL     1     -28.664 -23.050   7.363  1.00  0.00    -0.001 C 
ATOM     62  C   UNL     1     -29.420 -24.292   6.944  1.00  0.00     0.008 C 
ENDBRANCH  56  59
ENDBRANCH  40  55
ENDBRANCH   1  40
TORSDOF 7
ENDMDL
MODEL 5
REMARK VINA RESULT:    -4.715      4.036      9.550
REMARK INTER + INTRA:         -13.823
REMARK INTER:                 -10.422
REMARK INTRA:                  -3.401
REMARK UNBOUND:                -4.423
REMARK SMILES CCn1c(-c2cc(N3CCN(C)CC3)cnc2[C@H](C)OC)c2c3cc(ccc31)-c1csc(n1)C[C@H](NC(=O)[C@H]1C[C@@H]1C)C(=O)N1CCC[C@H](N1)C(=O)OCC(C)(C)C2
REMARK SMILES IDX 34 1 32 2 29 3 30 4 33 5 31 6 25 7 3 8 28 9 4 10 23 11 27 12
REMARK SMILES IDX 22 13 24 14 26 15 2 16 1 17 5 18 17 19 6 20 16 21 7 22 15 23
REMARK SMILES IDX 18 24 19 25 20 26 21 27 8 28 14 29 9 30 13 31 10 32 11 33
REMARK SMILES IDX 12 34 58 35 55 36 56 37 57 38 35 40 43 41 44 42 45 43 46 44
REMARK SMILES IDX 50 45 47 46 49 47 48 48 51 50 52 51 53 52 54 53 36 55 37 56
REMARK SMILES IDX 38 57 39 59 40 60 41 61 42 62
REMARK H PARENT 50 49 36 58
REMARK Flexibility Score:  160.900
ROOT
ATOM      1  C   UNL     1     -26.562 -13.234   1.749  1.00  0.00     0.102 C 
ENDROOT
BRANCH   1   2
ATOM      2  C   UNL     1     -26.221 -13.603   3.159  1.00  0.00     0.096 A 
ATOM      3  C   UNL     1     -25.808 -14.879   4.916  1.00  0.00     0.081 A 
ATOM      4  C   UNL     1     -25.640 -13.674   5.511  1.00  0.00     0.095 A 
ATOM      5  N   UNL     1     -26.216 -14.832   3.587  1.00  0.00    -0.241 NA
ATOM      6  S   UNL     1     -25.763 -12.431   4.344  1.00  0.00    -0.127 S 
BRANCH   3   7
ATOM      7  C   UNL     1     -25.609 -16.218   5.505  1.00  0.00     0.002 A 
ATOM      8  N   UNL     1     -24.967 -20.016   6.972  1.00  0.00    -0.340 N 
ATOM      9  C   UNL     1     -25.190 -18.691   6.654  1.00  0.00     0.049 A 
ATOM     10  C   UNL     1     -25.018 -20.770   5.813  1.00  0.00     0.054 A 
ATOM     11  C   UNL     1     -25.364 -18.599   5.260  1.00  0.00     0.004 A 
ATOM     12  C   UNL     1     -25.202 -17.572   7.481  1.00  0.00     0.027 A 
ATOM     13  C   UNL     1     -25.261 -19.923   4.733  1.00  0.00    -0.014 A 
ATOM     14  C   UNL     1     -25.574 -17.340   4.685  1.00  0.00     0.021 A 
ATOM     15  C   UNL     1     -25.422 -16.352   6.880  1.00  0.00     0.012 A 
BRANCH   8  16
ATOM     16  C   UNL     1     -24.793 -20.486   8.344  1.00  0.00     0.119 C 
ATOM     17  C   UNL     1     -23.539 -21.307   8.451  1.00  0.00     0.027 C 
ENDBRANCH   8  16
BRANCH  10  18
ATOM     18  C   UNL     1     -24.911 -22.232   5.779  1.00  0.00     0.025 A 
ATOM     19  C   UNL     1     -25.987 -23.090   6.102  1.00  0.00     0.078 A 
ATOM     20  C   UNL     1     -23.686 -22.794   5.427  1.00  0.00     0.039 A 
ATOM     21  N   UNL     1     -25.841 -24.421   6.071  1.00  0.00    -0.256 NA
ATOM     22  C   UNL     1     -23.549 -24.173   5.416  1.00  0.00     0.056 A 
ATOM     23  C   UNL     1     -24.652 -24.950   5.732  1.00  0.00     0.137 A 
BRANCH  19  24
ATOM     24  C   UNL     1     -27.360 -22.582   6.510  1.00  0.00     0.164 C 
ATOM     25  C   UNL     1     -27.524 -22.726   8.007  1.00  0.00     0.045 C 
BRANCH  24  26
ATOM     26  O   UNL     1     -28.336 -23.404   5.870  1.00  0.00    -0.375 OA
ATOM     27  C   UNL     1     -29.310 -23.929   6.759  1.00  0.00     0.195 C 
ENDBRANCH  24  26
ENDBRANCH  19  24
BRANCH  22  28
ATOM     28  N   UNL     1     -22.350 -24.761   5.049  1.00  0.00    -0.368 N 
ATOM     29  C   UNL     1     -21.794 -25.916   5.770  1.00  0.00     0.132 C 
ATOM     30  C   UNL     1     -21.665 -24.373   3.811  1.00  0.00     0.132 C 
ATOM     31  C   UNL     1     -20.282 -25.961   5.737  1.00  0.00     0.105 C 
ATOM     32  C   UNL     1     -20.162 -24.483   3.907  1.00  0.00     0.105 C 
ATOM     33  N   UNL     1     -19.782 -25.812   4.374  1.00  0.00    -0.303 NA
ATOM     34  C   UNL     1     -18.328 -25.974   4.325  1.00  0.00     0.105 C 
ENDBRANCH  22  28
ENDBRANCH  10  18
BRANCH  13  35
ATOM     35  C   UNL     1     -25.422 -20.316   3.291  1.00  0.00     0.048 C 
BRANCH  35  36
ATOM     36  C   UNL     1     -26.873 -20.492   2.819  1.00  0.00     0.003 CG0
ATOM     37  C   UNL     1     -27.768 -20.242   4.033  1.00  0.00     0.015 C 
ATOM     38  C   UNL     1     -27.120 -21.917   2.315  1.00  0.00     0.015 C 
ATOM     39  G   UNL     1     -27.216 -19.502   1.710  1.00  0.00     0.000 G0
ENDBRANCH  35  36
ENDBRANCH  13  35
ENDBRANCH   3   7
ENDBRANCH   1   2
BRANCH   1  40
ATOM     40  C   UNL     1     -27.083 -14.451   0.969  1.00  0.00     0.179 C 
BRANCH  40  41
ATOM     41  C   UNL     1     -28.580 -14.305   0.756  1.00  0.00     0.259 C 
ATOM     42  O   UNL     1     -29.213 -13.359   1.209  1.00  0.00    -0.271 OA
BRANCH  41  43
ATOM     43  N   UNL     1     -29.228 -15.310   0.085  1.00  0.00    -0.275 N 
ATOM     44  C   UNL     1     -30.434 -15.111  -0.734  1.00  0.00     0.140 C 
ATOM     45  N   UNL     1     -28.750 -16.636   0.195  1.00  0.00    -0.218 NA
ATOM     46  C   UNL     1     -31.555 -15.882  -0.067  1.00  0.00     0.025 C 
ATOM     47  C   UNL     1     -29.790 -17.478   0.808  1.00  0.00     0.184 C 
ATOM     48  C   UNL     1     -31.134 -17.341   0.073  1.00  0.00     0.035 C 
ATOM     49  H   UNL     1     -28.521 -16.999  -0.742  1.00  0.00     0.149 HD
BRANCH  47  50
ATOM     50  C   UNL     1     -29.329 -18.914   0.788  1.00  0.00     0.324 C 
ATOM     51  O   UNL     1     -29.538 -19.685  -0.117  1.00  0.00    -0.250 OA
BRANCH  50  52
ATOM     52  O   UNL     1     -28.665 -19.234   1.905  1.00  0.00    -0.464 OA
BRANCH  52  53
ATOM     53  C   UNL     1     -27.245 -19.498   1.719  1.00  0.00     0.239 CG0
ATOM     54  G   UNL     1     -26.860 -20.492   2.811  1.00  0.00     0.000 G0
ENDBRANCH  52  53
ENDBRANCH  50  52
ENDBRANCH  47  50
ENDBRANCH  41  43
ENDBRANCH  40  41
BRANCH  40  55
ATOM     55  N   UNL     1     -26.358 -14.654  -0.273  1.00  0.00    -0.344 N 
ATOM     56  C   UNL     1     -25.509 -15.682  -0.434  1.00  0.00     0.224 C 
ATOM     57  O   UNL     1     -25.086 -16.344   0.510  1.00  0.00    -0.275 OA
ATOM     58  H   UNL     1     -26.498 -13.993  -1.050  1.00  0.00     0.164 HD
BRANCH  56  59
ATOM     59  C   UNL     1     -25.177 -16.041  -1.826  1.00  0.00     0.081 C 
ATOM     60  C   UNL     1     -24.681 -17.439  -2.070  1.00  0.00     0.018 C 
ATOM     61  C   UNL     1     -26.046 -17.077  -2.527  1.00  0.00    -0.001 C 
ATOM     62  C   UNL     1     -26.365 -16.958  -4.001  1.00  0.00     0.008 C 
ENDBRANCH  56  59
ENDBRANCH  40  55
ENDBRANCH   1  40
TORSDOF 7
ENDMDL
MODEL 6
REMARK VINA RESULT:    -4.689      3.359     10.902
REMARK INTER + INTRA:         -13.772
REMARK INTER:                 -10.494
REMARK INTRA:                  -3.278
REMARK UNBOUND:                -4.423
REMARK SMILES CCn1c(-c2cc(N3CCN(C)CC3)cnc2[C@H](C)OC)c2c3cc(ccc31)-c1csc(n1)C[C@H](NC(=O)[C@H]1C[C@@H]1C)C(=O)N1CCC[C@H](N1)C(=O)OCC(C)(C)C2
REMARK SMILES IDX 34 1 32 2 29 3 30 4 33 5 31 6 25 7 3 8 28 9 4 10 23 11 27 12
REMARK SMILES IDX 22 13 24 14 26 15 2 16 1 17 5 18 17 19 6 20 16 21 7 22 15 23
REMARK SMILES IDX 18 24 19 25 20 26 21 27 8 28 14 29 9 30 13 31 10 32 11 33
REMARK SMILES IDX 12 34 58 35 55 36 56 37 57 38 35 40 43 41 44 42 45 43 46 44
REMARK SMILES IDX 50 45 47 46 49 47 48 48 51 50 52 51 53 52 54 53 36 55 37 56
REMARK SMILES IDX 38 57 39 59 40 60 41 61 42 62
REMARK H PARENT 50 49 36 58
REMARK Flexibility Score:  160.900
ROOT
ATOM      1  C   UNL     1     -23.318 -19.517   6.485  1.00  0.00     0.102 C 
ENDROOT
BRANCH   1   2
ATOM      2  C   UNL     1     -22.793 -20.673   5.691  1.00  0.00     0.096 A 
ATOM      3  C   UNL     1     -22.514 -22.762   5.023  1.00  0.00     0.081 A 
ATOM      4  C   UNL     1     -21.668 -22.166   4.149  1.00  0.00     0.095 A 
ATOM      5  N   UNL     1     -23.098 -21.910   5.955  1.00  0.00    -0.241 NA
ATOM      6  S   UNL     1     -21.759 -20.468   4.320  1.00  0.00    -0.127 S 
BRANCH   3   7
ATOM      7  C   UNL     1     -22.885 -24.188   5.099  1.00  0.00     0.002 A 
ATOM      8  N   UNL     1     -24.069 -28.135   5.174  1.00  0.00    -0.340 N 
ATOM      9  C   UNL     1     -23.513 -26.872   5.213  1.00  0.00     0.049 A 
ATOM     10  C   UNL     1     -25.414 -28.025   4.865  1.00  0.00     0.054 A 
ATOM     11  C   UNL     1     -24.521 -25.941   4.900  1.00  0.00     0.004 A 
ATOM     12  C   UNL     1     -22.197 -26.491   5.452  1.00  0.00     0.027 A 
ATOM     13  C   UNL     1     -25.726 -26.678   4.686  1.00  0.00    -0.014 A 
ATOM     14  C   UNL     1     -24.193 -24.581   4.842  1.00  0.00     0.021 A 
ATOM     15  C   UNL     1     -21.914 -25.144   5.396  1.00  0.00     0.012 A 
BRANCH   8  16
ATOM     16  C   UNL     1     -23.317 -29.346   5.498  1.00  0.00     0.119 C 
ATOM     17  C   UNL     1     -22.220 -29.553   4.494  1.00  0.00     0.027 C 
ENDBRANCH   8  16
BRANCH  10  18
ATOM     18  C   UNL     1     -26.342 -29.158   4.822  1.00  0.00     0.025 A 
ATOM     19  C   UNL     1     -26.319 -30.133   3.799  1.00  0.00     0.078 A 
ATOM     20  C   UNL     1     -27.297 -29.266   5.831  1.00  0.00     0.039 A 
ATOM     21  N   UNL     1     -27.196 -31.146   3.792  1.00  0.00    -0.256 NA
ATOM     22  C   UNL     1     -28.206 -30.311   5.799  1.00  0.00     0.056 A 
ATOM     23  C   UNL     1     -28.114 -31.236   4.770  1.00  0.00     0.137 A 
BRANCH  19  24
ATOM     24  C   UNL     1     -25.329 -30.104   2.647  1.00  0.00     0.164 C 
ATOM     25  C   UNL     1     -25.964 -29.421   1.456  1.00  0.00     0.045 C 
BRANCH  24  26
ATOM     26  O   UNL     1     -25.038 -31.455   2.288  1.00  0.00    -0.375 OA
ATOM     27  C   UNL     1     -24.129 -32.096   3.170  1.00  0.00     0.195 C 
ENDBRANCH  24  26
ENDBRANCH  19  24
BRANCH  22  28
ATOM     28  N   UNL     1     -29.152 -30.455   6.799  1.00  0.00    -0.368 N 
ATOM     29  C   UNL     1     -30.040 -31.626   6.870  1.00  0.00     0.132 C 
ATOM     30  C   UNL     1     -29.193 -29.535   7.940  1.00  0.00     0.132 C 
ATOM     31  C   UNL     1     -31.381 -31.314   7.497  1.00  0.00     0.105 C 
ATOM     32  C   UNL     1     -30.587 -29.327   8.483  1.00  0.00     0.105 C 
ATOM     33  N   UNL     1     -31.215 -30.612   8.767  1.00  0.00    -0.303 NA
ATOM     34  C   UNL     1     -32.504 -30.415   9.432  1.00  0.00     0.105 C 
ENDBRANCH  22  28
ENDBRANCH  10  18
BRANCH  13  35
ATOM     35  C   UNL     1     -27.075 -26.096   4.368  1.00  0.00     0.048 C 
BRANCH  35  36
ATOM     36  C   UNL     1     -27.332 -25.813   2.880  1.00  0.00     0.003 CG0
ATOM     37  C   UNL     1     -28.307 -26.883   2.388  1.00  0.00     0.015 C 
ATOM     38  C   UNL     1     -26.038 -25.919   2.067  1.00  0.00     0.015 C 
ATOM     39  G   UNL     1     -27.938 -24.427   2.678  1.00  0.00     0.000 G0
ENDBRANCH  35  36
ENDBRANCH  13  35
ENDBRANCH   3   7
ENDBRANCH   1   2
BRANCH   1  40
ATOM     40  C   UNL     1     -24.839 -19.377   6.317  1.00  0.00     0.179 C 
BRANCH  40  41
ATOM     41  C   UNL     1     -25.536 -20.106   7.453  1.00  0.00     0.259 C 
ATOM     42  O   UNL     1     -25.140 -20.038   8.610  1.00  0.00    -0.271 OA
BRANCH  41  43
ATOM     43  N   UNL     1     -26.602 -20.907   7.136  1.00  0.00    -0.275 N 
ATOM     44  C   UNL     1     -27.320 -21.749   8.106  1.00  0.00     0.140 C 
ATOM     45  N   UNL     1     -27.042 -20.975   5.793  1.00  0.00    -0.218 NA
ATOM     46  C   UNL     1     -27.102 -23.190   7.690  1.00  0.00     0.025 C 
ATOM     47  C   UNL     1     -26.899 -22.356   5.304  1.00  0.00     0.184 C 
ATOM     48  C   UNL     1     -27.573 -23.363   6.250  1.00  0.00     0.035 C 
ATOM     49  H   UNL     1     -28.031 -20.692   5.740  1.00  0.00     0.149 HD
BRANCH  47  50
ATOM     50  C   UNL     1     -27.503 -22.449   3.926  1.00  0.00     0.324 C 
ATOM     51  O   UNL     1     -28.361 -21.710   3.506  1.00  0.00    -0.250 OA
BRANCH  50  52
ATOM     52  O   UNL     1     -26.979 -23.461   3.224  1.00  0.00    -0.464 OA
BRANCH  52  53
ATOM     53  C   UNL     1     -27.953 -24.398   2.681  1.00  0.00     0.239 CG0
ATOM     54  G   UNL     1     -27.345 -25.784   2.868  1.00  0.00     0.000 G0
ENDBRANCH  52  53
ENDBRANCH  50  52
ENDBRANCH  47  50
ENDBRANCH  41  43
ENDBRANCH  40  41
BRANCH  40  55
ATOM     55  N   UNL     1     -25.251 -17.989   6.206  1.00  0.00    -0.344 N 
ATOM     56  C   UNL     1     -25.381 -17.386   5.014  1.00  0.00     0.224 C 
ATOM     57  O   UNL     1     -24.915 -17.856   3.980  1.00  0.00    -0.275 OA
ATOM     58  H   UNL     1     -25.448 -17.454   7.064  1.00  0.00     0.164 HD
BRANCH  56  59
ATOM     59  C   UNL     1     -26.201 -16.159   4.990  1.00  0.00     0.081 C 
ATOM     60  C   UNL     1     -26.615 -15.591   6.319  1.00  0.00     0.018 C 
ATOM     61  C   UNL     1     -25.585 -14.874   5.526  1.00  0.00    -0.001 C 
ATOM     62  C   UNL     1     -25.890 -13.537   4.886  1.00  0.00     0.008 C 
ENDBRANCH  56  59
ENDBRANCH  40  55
ENDBRANCH   1  40
TORSDOF 7
ENDMDL
MODEL 7
REMARK VINA RESULT:    -4.689      3.540      6.281
REMARK INTER + INTRA:         -13.771
REMARK INTER:                  -9.283
REMARK INTRA:                  -4.488
REMARK UNBOUND:                -4.423
REMARK SMILES CCn1c(-c2cc(N3CCN(C)CC3)cnc2[C@H](C)OC)c2c3cc(ccc31)-c1csc(n1)C[C@H](NC(=O)[C@H]1C[C@@H]1C)C(=O)N1CCC[C@H](N1)C(=O)OCC(C)(C)C2
REMARK SMILES IDX 34 1 32 2 29 3 30 4 33 5 31 6 25 7 3 8 28 9 4 10 23 11 27 12
REMARK SMILES IDX 22 13 24 14 26 15 2 16 1 17 5 18 17 19 6 20 16 21 7 22 15 23
REMARK SMILES IDX 18 24 19 25 20 26 21 27 8 28 14 29 9 30 13 31 10 32 11 33
REMARK SMILES IDX 12 34 58 35 55 36 56 37 57 38 35 40 43 41 44 42 45 43 46 44
REMARK SMILES IDX 50 45 47 46 49 47 48 48 51 50 52 51 53 52 54 53 36 55 37 56
REMARK SMILES IDX 38 57 39 59 40 60 41 61 42 62
REMARK H PARENT 50 49 36 58
REMARK Flexibility Score:  160.900
ROOT
ATOM      1  C   UNL     1     -26.985 -21.807   7.755  1.00  0.00     0.102 C 
ENDROOT
BRANCH   1   2
ATOM      2  C   UNL     1     -25.957 -20.734   7.578  1.00  0.00     0.096 A 
ATOM      3  C   UNL     1     -25.035 -18.855   6.866  1.00  0.00     0.081 A 
ATOM      4  C   UNL     1     -24.001 -19.302   7.618  1.00  0.00     0.095 A 
ATOM      5  N   UNL     1     -26.124 -19.716   6.785  1.00  0.00    -0.241 NA
ATOM      6  S   UNL     1     -24.461 -20.726   8.446  1.00  0.00    -0.127 S 
BRANCH   3   7
ATOM      7  C   UNL     1     -25.139 -17.577   6.135  1.00  0.00     0.002 A 
ATOM      8  N   UNL     1     -25.479 -14.115   3.924  1.00  0.00    -0.340 N 
ATOM      9  C   UNL     1     -25.391 -15.171   4.811  1.00  0.00     0.049 A 
ATOM     10  C   UNL     1     -25.148 -14.565   2.657  1.00  0.00     0.054 A 
ATOM     11  C   UNL     1     -25.018 -16.319   4.088  1.00  0.00     0.004 A 
ATOM     12  C   UNL     1     -25.659 -15.204   6.175  1.00  0.00     0.027 A 
ATOM     13  C   UNL     1     -24.858 -15.927   2.723  1.00  0.00    -0.014 A 
ATOM     14  C   UNL     1     -24.894 -17.536   4.767  1.00  0.00     0.021 A 
ATOM     15  C   UNL     1     -25.516 -16.418   6.812  1.00  0.00     0.012 A 
BRANCH   8  16
ATOM     16  C   UNL     1     -25.798 -12.751   4.339  1.00  0.00     0.119 C 
ATOM     17  C   UNL     1     -24.533 -11.973   4.560  1.00  0.00     0.027 C 
ENDBRANCH   8  16
BRANCH  10  18
ATOM     18  C   UNL     1     -25.049 -13.699   1.479  1.00  0.00     0.025 A 
ATOM     19  C   UNL     1     -23.859 -13.030   1.113  1.00  0.00     0.078 A 
ATOM     20  C   UNL     1     -26.188 -13.520   0.697  1.00  0.00     0.039 A 
ATOM     21  N   UNL     1     -23.817 -12.237   0.034  1.00  0.00    -0.256 NA
ATOM     22  C   UNL     1     -26.131 -12.683  -0.406  1.00  0.00     0.056 A 
ATOM     23  C   UNL     1     -24.925 -12.070  -0.710  1.00  0.00     0.137 A 
BRANCH  19  24
ATOM     24  C   UNL     1     -22.565 -13.146   1.901  1.00  0.00     0.164 C 
ATOM     25  C   UNL     1     -21.673 -11.967   1.580  1.00  0.00     0.045 C 
BRANCH  24  26
ATOM     26  O   UNL     1     -21.903 -14.339   1.479  1.00  0.00    -0.375 OA
ATOM     27  C   UNL     1     -21.032 -14.884   2.458  1.00  0.00     0.195 C 
ENDBRANCH  24  26
ENDBRANCH  19  24
BRANCH  22  28
ATOM     28  N   UNL     1     -27.240 -12.503  -1.215  1.00  0.00    -0.368 N 
ATOM     29  C   UNL     1     -28.611 -12.621  -0.695  1.00  0.00     0.132 C 
ATOM     30  C   UNL     1     -27.103 -12.008  -2.589  1.00  0.00     0.132 C 
ATOM     31  C   UNL     1     -29.599 -13.099  -1.737  1.00  0.00     0.105 C 
ATOM     32  C   UNL     1     -28.163 -12.547  -3.520  1.00  0.00     0.105 C 
ATOM     33  N   UNL     1     -29.490 -12.314  -2.963  1.00  0.00    -0.303 NA
ATOM     34  C   UNL     1     -30.523 -12.697  -3.927  1.00  0.00     0.105 C 
ENDBRANCH  22  28
ENDBRANCH  10  18
BRANCH  13  35
ATOM     35  C   UNL     1     -24.424 -16.816   1.592  1.00  0.00     0.048 C 
BRANCH  35  36
ATOM     36  C   UNL     1     -25.564 -17.485   0.810  1.00  0.00     0.003 CG0
ATOM     37  C   UNL     1     -25.430 -17.031  -0.644  1.00  0.00     0.015 C 
ATOM     38  C   UNL     1     -26.931 -17.039   1.337  1.00  0.00     0.015 C 
ATOM     39  G   UNL     1     -25.469 -19.006   0.888  1.00  0.00     0.000 G0
ENDBRANCH  35  36
ENDBRANCH  13  35
ENDBRANCH   3   7
ENDBRANCH   1   2
BRANCH   1  40
ATOM     40  C   UNL     1     -27.118 -22.660   6.483  1.00  0.00     0.179 C 
BRANCH  40  41
ATOM     41  C   UNL     1     -25.776 -23.298   6.167  1.00  0.00     0.259 C 
ATOM     42  O   UNL     1     -25.236 -24.089   6.930  1.00  0.00    -0.271 OA
BRANCH  41  43
ATOM     43  N   UNL     1     -25.143 -22.911   5.015  1.00  0.00    -0.275 N 
ATOM     44  C   UNL     1     -23.681 -22.872   4.849  1.00  0.00     0.140 C 
ATOM     45  N   UNL     1     -25.916 -22.487   3.909  1.00  0.00    -0.218 NA
ATOM     46  C   UNL     1     -23.299 -21.421   4.632  1.00  0.00     0.025 C 
ATOM     47  C   UNL     1     -25.589 -21.085   3.597  1.00  0.00     0.184 C 
ATOM     48  C   UNL     1     -24.074 -20.881   3.434  1.00  0.00     0.035 C 
ATOM     49  H   UNL     1     -25.705 -23.079   3.093  1.00  0.00     0.149 HD
BRANCH  47  50
ATOM     50  C   UNL     1     -26.308 -20.688   2.332  1.00  0.00     0.324 C 
ATOM     51  O   UNL     1     -26.889 -21.460   1.607  1.00  0.00    -0.250 OA
BRANCH  50  52
ATOM     52  O   UNL     1     -26.215 -19.373   2.104  1.00  0.00    -0.464 OA
BRANCH  52  53
ATOM     53  C   UNL     1     -25.494 -19.012   0.890  1.00  0.00     0.239 CG0
ATOM     54  G   UNL     1     -25.562 -17.491   0.804  1.00  0.00     0.000 G0
ENDBRANCH  52  53
ENDBRANCH  50  52
ENDBRANCH  47  50
ENDBRANCH  41  43
ENDBRANCH  40  41
BRANCH  40  55
ATOM     55  N   UNL     1     -28.190 -23.633   6.588  1.00  0.00    -0.344 N 
ATOM     56  C   UNL     1     -28.904 -24.013   5.516  1.00  0.00     0.224 C 
ATOM     57  O   UNL     1     -28.893 -23.389   4.459  1.00  0.00    -0.275 OA
ATOM     58  H   UNL     1     -28.408 -24.043   7.507  1.00  0.00     0.164 HD
BRANCH  56  59
ATOM     59  C   UNL     1     -29.642 -25.285   5.642  1.00  0.00     0.081 C 
ATOM     60  C   UNL     1     -29.473 -26.046   6.928  1.00  0.00     0.018 C 
ATOM     61  C   UNL     1     -30.765 -25.364   6.668  1.00  0.00    -0.001 C 
ATOM     62  C   UNL     1     -32.022 -26.160   6.390  1.00  0.00     0.008 C 
ENDBRANCH  56  59
ENDBRANCH  40  55
ENDBRANCH   1  40
TORSDOF 7
ENDMDL
MODEL 8
REMARK VINA RESULT:    -4.680      4.199      8.722
REMARK INTER + INTRA:         -13.753
REMARK INTER:                  -9.563
REMARK INTRA:                  -4.191
REMARK UNBOUND:                -4.423
REMARK SMILES CCn1c(-c2cc(N3CCN(C)CC3)cnc2[C@H](C)OC)c2c3cc(ccc31)-c1csc(n1)C[C@H](NC(=O)[C@H]1C[C@@H]1C)C(=O)N1CCC[C@H](N1)C(=O)OCC(C)(C)C2
REMARK SMILES IDX 34 1 32 2 29 3 30 4 33 5 31 6 25 7 3 8 28 9 4 10 23 11 27 12
REMARK SMILES IDX 22 13 24 14 26 15 2 16 1 17 5 18 17 19 6 20 16 21 7 22 15 23
REMARK SMILES IDX 18 24 19 25 20 26 21 27 8 28 14 29 9 30 13 31 10 32 11 33
REMARK SMILES IDX 12 34 58 35 55 36 56 37 57 38 35 40 43 41 44 42 45 43 46 44
REMARK SMILES IDX 50 45 47 46 49 47 48 48 51 50 52 51 53 52 54 53 36 55 37 56
REMARK SMILES IDX 38 57 39 59 40 60 41 61 42 62
REMARK H PARENT 50 49 36 58
REMARK Flexibility Score:  160.900
ROOT
ATOM      1  C   UNL     1     -24.968 -19.466   8.338  1.00  0.00     0.102 C 
ENDROOT
BRANCH   1   2
ATOM      2  C   UNL     1     -25.139 -18.141   7.664  1.00  0.00     0.096 A 
ATOM      3  C   UNL     1     -25.575 -16.679   6.064  1.00  0.00     0.081 A 
ATOM      4  C   UNL     1     -25.279 -15.800   7.050  1.00  0.00     0.095 A 
ATOM      5  N   UNL     1     -25.419 -18.020   6.399  1.00  0.00    -0.241 NA
ATOM      6  S   UNL     1     -25.018 -16.640   8.516  1.00  0.00    -0.127 S 
BRANCH   3   7
ATOM      7  C   UNL     1     -26.040 -16.385   4.694  1.00  0.00     0.002 A 
ATOM      8  N   UNL     1     -27.465 -15.723   0.883  1.00  0.00    -0.340 N 
ATOM      9  C   UNL     1     -26.937 -15.771   2.159  1.00  0.00     0.049 A 
ATOM     10  C   UNL     1     -27.813 -17.005   0.494  1.00  0.00     0.054 A 
ATOM     11  C   UNL     1     -26.972 -17.107   2.597  1.00  0.00     0.004 A 
ATOM     12  C   UNL     1     -26.482 -14.734   2.967  1.00  0.00     0.027 A 
ATOM     13  C   UNL     1     -27.522 -17.887   1.534  1.00  0.00    -0.014 A 
ATOM     14  C   UNL     1     -26.517 -17.410   3.886  1.00  0.00     0.021 A 
ATOM     15  C   UNL     1     -26.032 -15.072   4.225  1.00  0.00     0.012 A 
BRANCH   8  16
ATOM     16  C   UNL     1     -27.539 -14.494   0.098  1.00  0.00     0.119 C 
ATOM     17  C   UNL     1     -28.652 -13.624   0.609  1.00  0.00     0.027 C 
ENDBRANCH   8  16
BRANCH  10  18
ATOM     18  C   UNL     1     -28.326 -17.349  -0.836  1.00  0.00     0.025 A 
ATOM     19  C   UNL     1     -29.665 -17.118  -1.227  1.00  0.00     0.078 A 
ATOM     20  C   UNL     1     -27.453 -17.942  -1.745  1.00  0.00     0.039 A 
ATOM     21  N   UNL     1     -30.094 -17.460  -2.449  1.00  0.00    -0.256 NA
ATOM     22  C   UNL     1     -27.919 -18.303  -2.999  1.00  0.00     0.056 A 
ATOM     23  C   UNL     1     -29.241 -18.034  -3.315  1.00  0.00     0.137 A 
BRANCH  19  24
ATOM     24  C   UNL     1     -30.701 -16.488  -0.311  1.00  0.00     0.164 C 
ATOM     25  C   UNL     1     -31.853 -17.451  -0.120  1.00  0.00     0.045 C 
BRANCH  24  26
ATOM     26  O   UNL     1     -31.197 -15.315  -0.955  1.00  0.00    -0.375 OA
ATOM     27  C   UNL     1     -32.611 -15.286  -1.076  1.00  0.00     0.195 C 
ENDBRANCH  24  26
ENDBRANCH  19  24
BRANCH  22  28
ATOM     28  N   UNL     1     -27.069 -18.874  -3.930  1.00  0.00    -0.368 N 
ATOM     29  C   UNL     1     -25.826 -19.556  -3.538  1.00  0.00     0.132 C 
ATOM     30  C   UNL     1     -27.457 -18.985  -5.341  1.00  0.00     0.132 C 
ATOM     31  C   UNL     1     -24.745 -19.468  -4.593  1.00  0.00     0.105 C 
ATOM     32  C   UNL     1     -26.282 -18.901  -6.286  1.00  0.00     0.105 C 
ATOM     33  N   UNL     1     -25.256 -19.864  -5.902  1.00  0.00    -0.303 NA
ATOM     34  C   UNL     1     -24.185 -19.893  -6.899  1.00  0.00     0.105 C 
ENDBRANCH  22  28
ENDBRANCH  10  18
BRANCH  13  35
ATOM     35  C   UNL     1     -27.711 -19.378   1.536  1.00  0.00     0.048 C 
BRANCH  35  36
ATOM     36  C   UNL     1     -29.092 -19.863   2.003  1.00  0.00     0.003 CG0
ATOM     37  C   UNL     1     -29.859 -20.287   0.749  1.00  0.00     0.015 C 
ATOM     38  C   UNL     1     -29.869 -18.737   2.692  1.00  0.00     0.015 C 
ATOM     39  G   UNL     1     -28.968 -21.045   2.959  1.00  0.00     0.000 G0
ENDBRANCH  35  36
ENDBRANCH  13  35
ENDBRANCH   3   7
ENDBRANCH   1   2
BRANCH   1  40
ATOM     40  C   UNL     1     -24.001 -20.365   7.552  1.00  0.00     0.179 C 
BRANCH  40  41
ATOM     41  C   UNL     1     -24.660 -21.712   7.306  1.00  0.00     0.259 C 
ATOM     42  O   UNL     1     -24.063 -22.769   7.475  1.00  0.00    -0.271 OA
BRANCH  41  43
ATOM     43  N   UNL     1     -25.941 -21.714   6.820  1.00  0.00    -0.275 N 
ATOM     44  C   UNL     1     -27.138 -21.929   7.649  1.00  0.00     0.140 C 
ATOM     45  N   UNL     1     -26.157 -21.534   5.434  1.00  0.00    -0.218 NA
ATOM     46  C   UNL     1     -27.779 -23.219   7.177  1.00  0.00     0.025 C 
ATOM     47  C   UNL     1     -26.811 -22.733   4.884  1.00  0.00     0.184 C 
ATOM     48  C   UNL     1     -28.070 -23.107   5.684  1.00  0.00     0.035 C 
ATOM     49  H   UNL     1     -26.760 -20.713   5.283  1.00  0.00     0.149 HD
BRANCH  47  50
ATOM     50  C   UNL     1     -27.167 -22.475   3.441  1.00  0.00     0.324 C 
ATOM     51  O   UNL     1     -27.092 -23.300   2.562  1.00  0.00    -0.250 OA
BRANCH  50  52
ATOM     52  O   UNL     1     -27.565 -21.212   3.250  1.00  0.00    -0.464 OA
BRANCH  52  53
ATOM     53  C   UNL     1     -28.983 -21.056   2.954  1.00  0.00     0.239 CG0
ATOM     54  G   UNL     1     -29.083 -19.855   2.019  1.00  0.00     0.000 G0
ENDBRANCH  52  53
ENDBRANCH  50  52
ENDBRANCH  47  50
ENDBRANCH  41  43
ENDBRANCH  40  41
BRANCH  40  55
ATOM     55  N   UNL     1     -23.542 -19.734   6.327  1.00  0.00    -0.344 N 
ATOM     56  C   UNL     1     -22.324 -19.982   5.821  1.00  0.00     0.224 C 
ATOM     57  O   UNL     1     -21.434 -20.523   6.472  1.00  0.00    -0.275 OA
ATOM     58  H   UNL     1     -24.167 -19.080   5.834  1.00  0.00     0.164 HD
BRANCH  56  59
ATOM     59  C   UNL     1     -22.131 -19.651   4.395  1.00  0.00     0.081 C 
ATOM     60  C   UNL     1     -22.836 -18.427   3.879  1.00  0.00     0.018 C 
ATOM     61  C   UNL     1     -21.363 -18.382   4.051  1.00  0.00    -0.001 C 
ATOM     62  C   UNL     1     -20.442 -18.329   2.852  1.00  0.00     0.008 C 
ENDBRANCH  56  59
ENDBRANCH  40  55
ENDBRANCH   1  40
TORSDOF 7
ENDMDL
MODEL 9
REMARK VINA RESULT:    -4.617      3.362     11.011
REMARK INTER + INTRA:         -13.628
REMARK INTER:                 -10.184
REMARK INTRA:                  -3.444
REMARK UNBOUND:                -4.423
REMARK SMILES CCn1c(-c2cc(N3CCN(C)CC3)cnc2[C@H](C)OC)c2c3cc(ccc31)-c1csc(n1)C[C@H](NC(=O)[C@H]1C[C@@H]1C)C(=O)N1CCC[C@H](N1)C(=O)OCC(C)(C)C2
REMARK SMILES IDX 34 1 32 2 29 3 30 4 33 5 31 6 25 7 3 8 28 9 4 10 23 11 27 12
REMARK SMILES IDX 22 13 24 14 26 15 2 16 1 17 5 18 17 19 6 20 16 21 7 22 15 23
REMARK SMILES IDX 18 24 19 25 20 26 21 27 8 28 14 29 9 30 13 31 10 32 11 33
REMARK SMILES IDX 12 34 58 35 55 36 56 37 57 38 35 40 43 41 44 42 45 43 46 44
REMARK SMILES IDX 50 45 47 46 49 47 48 48 51 50 52 51 53 52 54 53 36 55 37 56
REMARK SMILES IDX 38 57 39 59 40 60 41 61 42 62
REMARK H PARENT 50 49 36 58
REMARK Flexibility Score:  160.900
ROOT
ATOM      1  C   UNL     1     -22.565 -20.665   6.486  1.00  0.00     0.102 C 
ENDROOT
BRANCH   1   2
ATOM      2  C   UNL     1     -23.975 -20.947   6.900  1.00  0.00     0.096 A 
ATOM      3  C   UNL     1     -25.931 -21.973   7.002  1.00  0.00     0.081 A 
ATOM      4  C   UNL     1     -26.195 -20.970   7.873  1.00  0.00     0.095 A 
ATOM      5  N   UNL     1     -24.684 -21.912   6.389  1.00  0.00    -0.241 NA
ATOM      6  S   UNL     1     -24.784 -20.039   8.129  1.00  0.00    -0.127 S 
BRANCH   3   7
ATOM      7  C   UNL     1     -26.798 -23.108   6.635  1.00  0.00     0.002 A 
ATOM      8  N   UNL     1     -29.071 -26.408   5.666  1.00  0.00    -0.340 N 
ATOM      9  C   UNL     1     -28.467 -25.212   6.002  1.00  0.00     0.049 A 
ATOM     10  C   UNL     1     -28.092 -27.326   5.327  1.00  0.00     0.054 A 
ATOM     11  C   UNL     1     -27.074 -25.382   5.896  1.00  0.00     0.004 A 
ATOM     12  C   UNL     1     -29.041 -24.021   6.435  1.00  0.00     0.027 A 
ATOM     13  C   UNL     1     -26.843 -26.723   5.461  1.00  0.00    -0.014 A 
ATOM     14  C   UNL     1     -26.234 -24.310   6.222  1.00  0.00     0.021 A 
ATOM     15  C   UNL     1     -28.184 -22.986   6.736  1.00  0.00     0.012 A 
BRANCH   8  16
ATOM     16  C   UNL     1     -30.521 -26.581   5.619  1.00  0.00     0.119 C 
ATOM     17  C   UNL     1     -31.047 -26.888   6.992  1.00  0.00     0.027 C 
ENDBRANCH   8  16
BRANCH  10  18
ATOM     18  C   UNL     1     -28.371 -28.677   4.833  1.00  0.00     0.025 A 
ATOM     19  C   UNL     1     -28.583 -29.781   5.691  1.00  0.00     0.078 A 
ATOM     20  C   UNL     1     -28.412 -28.880   3.455  1.00  0.00     0.039 A 
ATOM     21  N   UNL     1     -28.821 -31.003   5.196  1.00  0.00    -0.256 NA
ATOM     22  C   UNL     1     -28.644 -30.153   2.961  1.00  0.00     0.056 A 
ATOM     23  C   UNL     1     -28.855 -31.184   3.863  1.00  0.00     0.137 A 
BRANCH  19  24
ATOM     24  C   UNL     1     -28.548 -29.674   7.206  1.00  0.00     0.164 C 
ATOM     25  C   UNL     1     -27.122 -29.827   7.687  1.00  0.00     0.045 C 
BRANCH  24  26
ATOM     26  O   UNL     1     -29.320 -30.751   7.737  1.00  0.00    -0.375 OA
ATOM     27  C   UNL     1     -30.654 -30.390   8.063  1.00  0.00     0.195 C 
ENDBRANCH  24  26
ENDBRANCH  19  24
BRANCH  22  28
ATOM     28  N   UNL     1     -28.712 -30.381   1.597  1.00  0.00    -0.368 N 
ATOM     29  C   UNL     1     -28.988 -31.714   1.041  1.00  0.00     0.132 C 
ATOM     30  C   UNL     1     -28.690 -29.267   0.643  1.00  0.00     0.132 C 
ATOM     31  C   UNL     1     -28.347 -31.935  -0.311  1.00  0.00     0.105 C 
ATOM     32  C   UNL     1     -28.040 -29.628  -0.672  1.00  0.00     0.105 C 
ATOM     33  N   UNL     1     -28.649 -30.834  -1.221  1.00  0.00    -0.303 NA
ATOM     34  C   UNL     1     -28.129 -31.103  -2.563  1.00  0.00     0.105 C 
ENDBRANCH  22  28
ENDBRANCH  10  18
BRANCH  13  35
ATOM     35  C   UNL     1     -25.504 -27.340   5.171  1.00  0.00     0.048 C 
BRANCH  35  36
ATOM     36  C   UNL     1     -24.868 -26.929   3.834  1.00  0.00     0.003 CG0
ATOM     37  C   UNL     1     -25.986 -26.336   2.976  1.00  0.00     0.015 C 
ATOM     38  C   UNL     1     -24.282 -28.142   3.105  1.00  0.00     0.015 C 
ATOM     39  G   UNL     1     -23.769 -25.890   4.042  1.00  0.00     0.000 G0
ENDBRANCH  35  36
ENDBRANCH  13  35
ENDBRANCH   3   7
ENDBRANCH   1   2
BRANCH   1  40
ATOM     40  C   UNL     1     -22.510 -20.107   5.055  1.00  0.00     0.179 C 
BRANCH  40  41
ATOM     41  C   UNL     1     -22.452 -21.263   4.070  1.00  0.00     0.259 C 
ATOM     42  O   UNL     1     -23.272 -21.391   3.169  1.00  0.00    -0.271 OA
BRANCH  41  43
ATOM     43  N   UNL     1     -21.479 -22.210   4.257  1.00  0.00    -0.275 N 
ATOM     44  C   UNL     1     -20.172 -22.194   3.582  1.00  0.00     0.140 C 
ATOM     45  N   UNL     1     -21.731 -23.300   5.121  1.00  0.00    -0.218 NA
ATOM     46  C   UNL     1     -20.115 -23.422   2.696  1.00  0.00     0.025 C 
ATOM     47  C   UNL     1     -21.665 -24.554   4.353  1.00  0.00     0.184 C 
ATOM     48  C   UNL     1     -20.355 -24.660   3.555  1.00  0.00     0.035 C 
ATOM     49  H   UNL     1     -21.023 -23.317   5.870  1.00  0.00     0.149 HD
BRANCH  47  50
ATOM     50  C   UNL     1     -21.791 -25.716   5.306  1.00  0.00     0.324 C 
ATOM     51  O   UNL     1     -20.986 -25.982   6.167  1.00  0.00    -0.250 OA
BRANCH  50  52
ATOM     52  O   UNL     1     -22.901 -26.426   5.076  1.00  0.00    -0.464 OA
BRANCH  52  53
ATOM     53  C   UNL     1     -23.761 -25.894   4.027  1.00  0.00     0.239 CG0
ATOM     54  G   UNL     1     -24.865 -26.928   3.831  1.00  0.00     0.000 G0
ENDBRANCH  52  53
ENDBRANCH  50  52
ENDBRANCH  47  50
ENDBRANCH  41  43
ENDBRANCH  40  41
BRANCH  40  55
ATOM     55  N   UNL     1     -23.606 -19.194   4.783  1.00  0.00    -0.344 N 
ATOM     56  C   UNL     1     -23.408 -18.024   4.154  1.00  0.00     0.224 C 
ATOM     57  O   UNL     1     -22.293 -17.529   4.013  1.00  0.00    -0.275 OA
ATOM     58  H   UNL     1     -24.558 -19.449   5.079  1.00  0.00     0.164 HD
BRANCH  56  59
ATOM     59  C   UNL     1     -24.601 -17.398   3.552  1.00  0.00     0.081 C 
ATOM     60  C   UNL     1     -25.939 -17.947   3.964  1.00  0.00     0.018 C 
ATOM     61  C   UNL     1     -25.533 -16.609   4.462  1.00  0.00    -0.001 C 
ATOM     62  C   UNL     1     -26.225 -15.355   3.972  1.00  0.00     0.008 C 
ENDBRANCH  56  59
ENDBRANCH  40  55
ENDBRANCH   1  40
TORSDOF 7
ENDMDL
MODEL 10
REMARK VINA RESULT:    -4.610      5.617      9.831
REMARK INTER + INTRA:         -13.614
REMARK INTER:                  -9.721
REMARK INTRA:                  -3.893
REMARK UNBOUND:                -4.423
REMARK SMILES CCn1c(-c2cc(N3CCN(C)CC3)cnc2[C@H](C)OC)c2c3cc(ccc31)-c1csc(n1)C[C@H](NC(=O)[C@H]1C[C@@H]1C)C(=O)N1CCC[C@H](N1)C(=O)OCC(C)(C)C2
REMARK SMILES IDX 34 1 32 2 29 3 30 4 33 5 31 6 25 7 3 8 28 9 4 10 23 11 27 12
REMARK SMILES IDX 22 13 24 14 26 15 2 16 1 17 5 18 17 19 6 20 16 21 7 22 15 23
REMARK SMILES IDX 18 24 19 25 20 26 21 27 8 28 14 29 9 30 13 31 10 32 11 33
REMARK SMILES IDX 12 34 58 35 55 36 56 37 57 38 35 40 43 41 44 42 45 43 46 44
REMARK SMILES IDX 50 45 47 46 49 47 48 48 51 50 52 51 53 52 54 53 36 55 37 56
REMARK SMILES IDX 38 57 39 59 40 60 41 61 42 62
REMARK H PARENT 50 49 36 58
REMARK Flexibility Score:  160.900
ROOT
ATOM      1  C   UNL     1     -28.425 -23.181   4.460  1.00  0.00     0.102 C 
ENDROOT
BRANCH   1   2
ATOM      2  C   UNL     1     -27.773 -23.154   3.112  1.00  0.00     0.096 A 
ATOM      3  C   UNL     1     -26.247 -23.495   1.550  1.00  0.00     0.081 A 
ATOM      4  C   UNL     1     -27.167 -22.863   0.784  1.00  0.00     0.095 A 
ATOM      5  N   UNL     1     -26.566 -23.591   2.900  1.00  0.00    -0.241 NA
ATOM      6  S   UNL     1     -28.582 -22.574   1.698  1.00  0.00    -0.127 S 
BRANCH   3   7
ATOM      7  C   UNL     1     -24.964 -24.087   1.125  1.00  0.00     0.002 A 
ATOM      8  N   UNL     1     -21.344 -25.792   0.134  1.00  0.00    -0.340 N 
ATOM      9  C   UNL     1     -22.601 -25.243   0.292  1.00  0.00     0.049 A 
ATOM     10  C   UNL     1     -20.629 -25.619   1.306  1.00  0.00     0.054 A 
ATOM     11  C   UNL     1     -22.694 -24.731   1.599  1.00  0.00     0.004 A 
ATOM     12  C   UNL     1     -23.669 -25.206  -0.600  1.00  0.00     0.027 A 
ATOM     13  C   UNL     1     -21.437 -24.966   2.235  1.00  0.00    -0.014 A 
ATOM     14  C   UNL     1     -23.897 -24.148   2.015  1.00  0.00     0.021 A 
ATOM     15  C   UNL     1     -24.833 -24.615  -0.159  1.00  0.00     0.012 A 
BRANCH   8  16
ATOM     16  C   UNL     1     -20.882 -26.374  -1.124  1.00  0.00     0.119 C 
ATOM     17  C   UNL     1     -21.641 -27.637  -1.415  1.00  0.00     0.027 C 
ENDBRANCH   8  16
BRANCH  10  18
ATOM     18  C   UNL     1     -19.223 -26.001   1.474  1.00  0.00     0.025 A 
ATOM     19  C   UNL     1     -18.149 -25.190   1.042  1.00  0.00     0.078 A 
ATOM     20  C   UNL     1     -18.941 -27.226   2.073  1.00  0.00     0.039 A 
ATOM     21  N   UNL     1     -16.879 -25.585   1.204  1.00  0.00    -0.256 NA
ATOM     22  C   UNL     1     -17.622 -27.625   2.218  1.00  0.00     0.056 A 
ATOM     23  C   UNL     1     -16.621 -26.771   1.782  1.00  0.00     0.137 A 
BRANCH  19  24
ATOM     24  C   UNL     1     -18.344 -23.843   0.367  1.00  0.00     0.164 C 
ATOM     25  C   UNL     1     -17.075 -23.456  -0.360  1.00  0.00     0.045 C 
BRANCH  24  26
ATOM     26  O   UNL     1     -18.590 -22.875   1.388  1.00  0.00    -0.375 OA
ATOM     27  C   UNL     1     -18.444 -21.534   0.949  1.00  0.00     0.195 C 
ENDBRANCH  24  26
ENDBRANCH  19  24
BRANCH  22  28
ATOM     28  N   UNL     1     -17.311 -28.828   2.829  1.00  0.00    -0.368 N 
ATOM     29  C   UNL     1     -15.921 -29.246   3.067  1.00  0.00     0.132 C 
ATOM     30  C   UNL     1     -18.356 -29.662   3.433  1.00  0.00     0.132 C 
ATOM     31  C   UNL     1     -15.744 -30.748   3.050  1.00  0.00     0.105 C 
ATOM     32  C   UNL     1     -18.045 -31.139   3.367  1.00  0.00     0.105 C 
ATOM     33  N   UNL     1     -16.720 -31.401   3.917  1.00  0.00    -0.303 NA
ATOM     34  C   UNL     1     -16.476 -32.842   3.994  1.00  0.00     0.105 C 
ENDBRANCH  22  28
ENDBRANCH  10  18
BRANCH  13  35
ATOM     35  C   UNL     1     -21.059 -24.550   3.629  1.00  0.00     0.048 C 
BRANCH  35  36
ATOM     36  C   UNL     1     -21.361 -25.582   4.726  1.00  0.00     0.003 CG0
ATOM     37  C   UNL     1     -20.032 -25.899   5.414  1.00  0.00     0.015 C 
ATOM     38  C   UNL     1     -21.921 -26.876   4.127  1.00  0.00     0.015 C 
ATOM     39  G   UNL     1     -22.354 -25.031   5.745  1.00  0.00     0.000 G0
ENDBRANCH  35  36
ENDBRANCH  13  35
ENDBRANCH   3   7
ENDBRANCH   1   2
BRANCH   1  40
ATOM     40  C   UNL     1     -27.571 -23.962   5.471  1.00  0.00     0.179 C 
BRANCH  40  41
ATOM     41  C   UNL     1     -27.620 -23.257   6.816  1.00  0.00     0.259 C 
ATOM     42  O   UNL     1     -28.594 -23.331   7.555  1.00  0.00    -0.271 OA
BRANCH  41  43
ATOM     43  N   UNL     1     -26.552 -22.470   7.161  1.00  0.00    -0.275 N 
ATOM     44  C   UNL     1     -26.654 -21.040   7.493  1.00  0.00     0.140 C 
ATOM     45  N   UNL     1     -25.254 -23.031   7.175  1.00  0.00    -0.218 NA
ATOM     46  C   UNL     1     -25.884 -20.281   6.431  1.00  0.00     0.025 C 
ATOM     47  C   UNL     1     -24.412 -22.332   6.189  1.00  0.00     0.184 C 
ATOM     48  C   UNL     1     -24.453 -20.809   6.390  1.00  0.00     0.035 C 
ATOM     49  H   UNL     1     -24.843 -22.926   8.114  1.00  0.00     0.149 HD
BRANCH  47  50
ATOM     50  C   UNL     1     -22.997 -22.838   6.313  1.00  0.00     0.324 C 
ATOM     51  O   UNL     1     -22.232 -22.516   7.191  1.00  0.00    -0.250 OA
BRANCH  50  52
ATOM     52  O   UNL     1     -22.686 -23.682   5.323  1.00  0.00    -0.464 OA
BRANCH  52  53
ATOM     53  C   UNL     1     -22.363 -25.036   5.751  1.00  0.00     0.239 CG0
ATOM     54  G   UNL     1     -21.354 -25.564   4.735  1.00  0.00     0.000 G0
ENDBRANCH  52  53
ENDBRANCH  50  52
ENDBRANCH  47  50
ENDBRANCH  41  43
ENDBRANCH  40  41
BRANCH  40  55
ATOM     55  N   UNL     1     -27.965 -25.357   5.555  1.00  0.00    -0.344 N 
ATOM     56  C   UNL     1     -27.064 -26.349   5.472  1.00  0.00     0.224 C 
ATOM     57  O   UNL     1     -25.922 -26.173   5.058  1.00  0.00    -0.275 OA
ATOM     58  H   UNL     1     -28.959 -25.592   5.683  1.00  0.00     0.164 HD
BRANCH  56  59
ATOM     59  C   UNL     1     -27.490 -27.662   5.996  1.00  0.00     0.081 C 
ATOM     60  C   UNL     1     -27.088 -28.875   5.205  1.00  0.00     0.018 C 
ATOM     61  C   UNL     1     -26.417 -28.615   6.502  1.00  0.00    -0.001 C 
ATOM     62  C   UNL     1     -26.667 -29.508   7.699  1.00  0.00     0.008 C 
ENDBRANCH  56  59
ENDBRANCH  40  55
ENDBRANCH   1  40
TORSDOF 7
ENDMDL
MODEL 11
REMARK VINA RESULT:    -4.604      3.829      9.742
REMARK INTER + INTRA:         -13.603
REMARK INTER:                 -10.129
REMARK INTRA:                  -3.474
REMARK UNBOUND:                -4.423
REMARK SMILES CCn1c(-c2cc(N3CCN(C)CC3)cnc2[C@H](C)OC)c2c3cc(ccc31)-c1csc(n1)C[C@H](NC(=O)[C@H]1C[C@@H]1C)C(=O)N1CCC[C@H](N1)C(=O)OCC(C)(C)C2
REMARK SMILES IDX 34 1 32 2 29 3 30 4 33 5 31 6 25 7 3 8 28 9 4 10 23 11 27 12
REMARK SMILES IDX 22 13 24 14 26 15 2 16 1 17 5 18 17 19 6 20 16 21 7 22 15 23
REMARK SMILES IDX 18 24 19 25 20 26 21 27 8 28 14 29 9 30 13 31 10 32 11 33
REMARK SMILES IDX 12 34 58 35 55 36 56 37 57 38 35 40 43 41 44 42 45 43 46 44
REMARK SMILES IDX 50 45 47 46 49 47 48 48 51 50 52 51 53 52 54 53 36 55 37 56
REMARK SMILES IDX 38 57 39 59 40 60 41 61 42 62
REMARK H PARENT 50 49 36 58
REMARK Flexibility Score:  160.900
ROOT
ATOM      1  C   UNL     1     -26.416 -12.797   1.624  1.00  0.00     0.102 C 
ENDROOT
BRANCH   1   2
ATOM      2  C   UNL     1     -26.118 -13.215   3.030  1.00  0.00     0.096 A 
ATOM      3  C   UNL     1     -25.802 -14.550   4.764  1.00  0.00     0.081 A 
ATOM      4  C   UNL     1     -25.579 -13.369   5.388  1.00  0.00     0.095 A 
ATOM      5  N   UNL     1     -26.186 -14.452   3.431  1.00  0.00    -0.241 NA
ATOM      6  S   UNL     1     -25.617 -12.095   4.249  1.00  0.00    -0.127 S 
BRANCH   3   7
ATOM      7  C   UNL     1     -25.684 -15.910   5.325  1.00  0.00     0.002 A 
ATOM      8  N   UNL     1     -25.272 -19.769   6.713  1.00  0.00    -0.340 N 
ATOM      9  C   UNL     1     -25.416 -18.427   6.422  1.00  0.00     0.049 A 
ATOM     10  C   UNL     1     -25.359 -20.495   5.538  1.00  0.00     0.054 A 
ATOM     11  C   UNL     1     -25.576 -18.295   5.031  1.00  0.00     0.004 A 
ATOM     12  C   UNL     1     -25.369 -17.327   7.273  1.00  0.00     0.027 A 
ATOM     13  C   UNL     1     -25.545 -19.611   4.475  1.00  0.00    -0.014 A 
ATOM     14  C   UNL     1     -25.709 -17.015   4.481  1.00  0.00     0.021 A 
ATOM     15  C   UNL     1     -25.514 -16.083   6.698  1.00  0.00     0.012 A 
BRANCH   8  16
ATOM     16  C   UNL     1     -25.134 -20.277   8.076  1.00  0.00     0.119 C 
ATOM     17  C   UNL     1     -23.682 -20.471   8.408  1.00  0.00     0.027 C 
ENDBRANCH   8  16
BRANCH  10  18
ATOM     18  C   UNL     1     -25.336 -21.959   5.473  1.00  0.00     0.025 A 
ATOM     19  C   UNL     1     -24.220 -22.691   5.007  1.00  0.00     0.078 A 
ATOM     20  C   UNL     1     -26.473 -22.653   5.878  1.00  0.00     0.039 A 
ATOM     21  N   UNL     1     -24.247 -24.029   4.953  1.00  0.00    -0.256 NA
ATOM     22  C   UNL     1     -26.489 -24.037   5.800  1.00  0.00     0.056 A 
ATOM     23  C   UNL     1     -25.353 -24.687   5.344  1.00  0.00     0.137 A 
BRANCH  19  24
ATOM     24  C   UNL     1     -22.935 -22.033   4.532  1.00  0.00     0.164 C 
ATOM     25  C   UNL     1     -22.072 -23.062   3.835  1.00  0.00     0.045 C 
BRANCH  24  26
ATOM     26  O   UNL     1     -22.234 -21.563   5.683  1.00  0.00    -0.375 OA
ATOM     27  C   UNL     1     -21.619 -20.297   5.498  1.00  0.00     0.195 C 
ENDBRANCH  24  26
ENDBRANCH  19  24
BRANCH  22  28
ATOM     28  N   UNL     1     -27.597 -24.755   6.215  1.00  0.00    -0.368 N 
ATOM     29  C   UNL     1     -27.750 -26.190   5.928  1.00  0.00     0.132 C 
ATOM     30  C   UNL     1     -28.589 -24.161   7.118  1.00  0.00     0.132 C 
ATOM     31  C   UNL     1     -29.195 -26.615   5.793  1.00  0.00     0.105 C 
ATOM     32  C   UNL     1     -29.987 -24.687   6.890  1.00  0.00     0.105 C 
ATOM     33  N   UNL     1     -29.989 -26.145   6.925  1.00  0.00    -0.303 NA
ATOM     34  C   UNL     1     -31.359 -26.655   6.855  1.00  0.00     0.105 C 
ENDBRANCH  22  28
ENDBRANCH  10  18
BRANCH  13  35
ATOM     35  C   UNL     1     -25.720 -19.964   3.025  1.00  0.00     0.048 C 
BRANCH  35  36
ATOM     36  C   UNL     1     -27.143 -20.370   2.616  1.00  0.00     0.003 CG0
ATOM     37  C   UNL     1     -28.060 -20.006   3.784  1.00  0.00     0.015 C 
ATOM     38  C   UNL     1     -27.238 -21.879   2.372  1.00  0.00     0.015 C 
ATOM     39  G   UNL     1     -27.589 -19.630   1.358  1.00  0.00     0.000 G0
ENDBRANCH  35  36
ENDBRANCH  13  35
ENDBRANCH   3   7
ENDBRANCH   1   2
BRANCH   1  40
ATOM     40  C   UNL     1     -26.900 -13.988   0.784  1.00  0.00     0.179 C 
BRANCH  40  41
ATOM     41  C   UNL     1     -28.419 -14.033   0.807  1.00  0.00     0.259 C 
ATOM     42  O   UNL     1     -29.081 -13.284   1.515  1.00  0.00    -0.271 OA
BRANCH  41  43
ATOM     43  N   UNL     1     -29.039 -14.993   0.050  1.00  0.00    -0.275 N 
ATOM     44  C   UNL     1     -30.062 -14.707  -0.968  1.00  0.00     0.140 C 
ATOM     45  N   UNL     1     -28.720 -16.354   0.261  1.00  0.00    -0.218 NA
ATOM     46  C   UNL     1     -31.352 -15.347  -0.492  1.00  0.00     0.025 C 
ATOM     47  C   UNL     1     -29.927 -17.074   0.699  1.00  0.00     0.184 C 
ATOM     48  C   UNL     1     -31.106 -16.834  -0.259  1.00  0.00     0.035 C 
ATOM     49  H   UNL     1     -28.372 -16.767  -0.616  1.00  0.00     0.149 HD
BRANCH  47  50
ATOM     50  C   UNL     1     -29.612 -18.547   0.781  1.00  0.00     0.324 C 
ATOM     51  O   UNL     1     -30.098 -19.389   0.064  1.00  0.00    -0.250 OA
BRANCH  50  52
ATOM     52  O   UNL     1     -28.735 -18.810   1.756  1.00  0.00    -0.464 OA
BRANCH  52  53
ATOM     53  C   UNL     1     -27.601 -19.632   1.354  1.00  0.00     0.239 CG0
ATOM     54  G   UNL     1     -27.147 -20.359   2.615  1.00  0.00     0.000 G0
ENDBRANCH  52  53
ENDBRANCH  50  52
ENDBRANCH  47  50
ENDBRANCH  41  43
ENDBRANCH  40  41
BRANCH  40  55
ATOM     55  N   UNL     1     -26.362 -13.959  -0.565  1.00  0.00    -0.344 N 
ATOM     56  C   UNL     1     -25.529 -14.913  -1.011  1.00  0.00     0.224 C 
ATOM     57  O   UNL     1     -24.961 -15.700  -0.260  1.00  0.00    -0.275 OA
ATOM     58  H   UNL     1     -26.626 -13.189  -1.195  1.00  0.00     0.164 HD
BRANCH  56  59
ATOM     59  C   UNL     1     -25.398 -15.030  -2.477  1.00  0.00     0.081 C 
ATOM     60  C   UNL     1     -24.097 -15.567  -3.004  1.00  0.00     0.018 C 
ATOM     61  C   UNL     1     -25.305 -16.425  -3.080  1.00  0.00    -0.001 C 
ATOM     62  C   UNL     1     -25.950 -16.743  -4.412  1.00  0.00     0.008 C 
ENDBRANCH  56  59
ENDBRANCH  40  55
ENDBRANCH   1  40
TORSDOF 7
ENDMDL
MODEL 12
REMARK VINA RESULT:    -4.591      4.208     11.346
REMARK INTER + INTRA:         -13.576
REMARK INTER:                 -10.075
REMARK INTRA:                  -3.501
REMARK UNBOUND:                -4.423
REMARK SMILES CCn1c(-c2cc(N3CCN(C)CC3)cnc2[C@H](C)OC)c2c3cc(ccc31)-c1csc(n1)C[C@H](NC(=O)[C@H]1C[C@@H]1C)C(=O)N1CCC[C@H](N1)C(=O)OCC(C)(C)C2
REMARK SMILES IDX 34 1 32 2 29 3 30 4 33 5 31 6 25 7 3 8 28 9 4 10 23 11 27 12
REMARK SMILES IDX 22 13 24 14 26 15 2 16 1 17 5 18 17 19 6 20 16 21 7 22 15 23
REMARK SMILES IDX 18 24 19 25 20 26 21 27 8 28 14 29 9 30 13 31 10 32 11 33
REMARK SMILES IDX 12 34 58 35 55 36 56 37 57 38 35 40 43 41 44 42 45 43 46 44
REMARK SMILES IDX 50 45 47 46 49 47 48 48 51 50 52 51 53 52 54 53 36 55 37 56
REMARK SMILES IDX 38 57 39 59 40 60 41 61 42 62
REMARK H PARENT 50 49 36 58
REMARK Flexibility Score:  160.900
ROOT
ATOM      1  C   UNL     1     -23.324 -19.331   5.406  1.00  0.00     0.102 C 
ENDROOT
BRANCH   1   2
ATOM      2  C   UNL     1     -23.908 -20.396   6.281  1.00  0.00     0.096 A 
ATOM      3  C   UNL     1     -25.209 -22.070   6.907  1.00  0.00     0.081 A 
ATOM      4  C   UNL     1     -24.495 -21.945   8.051  1.00  0.00     0.095 A 
ATOM      5  N   UNL     1     -24.921 -21.130   5.923  1.00  0.00    -0.241 NA
ATOM      6  S   UNL     1     -23.263 -20.779   7.839  1.00  0.00    -0.127 S 
BRANCH   3   7
ATOM      7  C   UNL     1     -26.241 -23.075   6.587  1.00  0.00     0.002 A 
ATOM      8  N   UNL     1     -29.003 -26.026   5.779  1.00  0.00    -0.340 N 
ATOM      9  C   UNL     1     -28.216 -24.921   6.034  1.00  0.00     0.049 A 
ATOM     10  C   UNL     1     -28.189 -27.138   5.653  1.00  0.00     0.054 A 
ATOM     11  C   UNL     1     -26.875 -25.344   6.095  1.00  0.00     0.004 A 
ATOM     12  C   UNL     1     -28.591 -23.601   6.262  1.00  0.00     0.027 A 
ATOM     13  C   UNL     1     -26.864 -26.751   5.846  1.00  0.00    -0.014 A 
ATOM     14  C   UNL     1     -25.879 -24.402   6.378  1.00  0.00     0.021 A 
ATOM     15  C   UNL     1     -27.582 -22.700   6.527  1.00  0.00     0.012 A 
BRANCH   8  16
ATOM     16  C   UNL     1     -30.451 -25.947   5.601  1.00  0.00     0.119 C 
ATOM     17  C   UNL     1     -31.138 -26.040   6.933  1.00  0.00     0.027 C 
ENDBRANCH   8  16
BRANCH  10  18
ATOM     18  C   UNL     1     -28.673 -28.474   5.295  1.00  0.00     0.025 A 
ATOM     19  C   UNL     1     -29.043 -29.442   6.257  1.00  0.00     0.078 A 
ATOM     20  C   UNL     1     -28.758 -28.804   3.944  1.00  0.00     0.039 A 
ATOM     21  N   UNL     1     -29.468 -30.657   5.885  1.00  0.00    -0.256 NA
ATOM     22  C   UNL     1     -29.184 -30.070   3.578  1.00  0.00     0.056 A 
ATOM     23  C   UNL     1     -29.542 -30.962   4.577  1.00  0.00     0.137 A 
BRANCH  19  24
ATOM     24  C   UNL     1     -28.978 -29.192   7.754  1.00  0.00     0.164 C 
ATOM     25  C   UNL     1     -27.630 -29.635   8.280  1.00  0.00     0.045 C 
BRANCH  24  26
ATOM     26  O   UNL     1     -29.986 -29.990   8.374  1.00  0.00    -0.375 OA
ATOM     27  C   UNL     1     -31.106 -29.244   8.825  1.00  0.00     0.195 C 
ENDBRANCH  24  26
ENDBRANCH  19  24
BRANCH  22  28
ATOM     28  N   UNL     1     -29.299 -30.419   2.243  1.00  0.00    -0.368 N 
ATOM     29  C   UNL     1     -28.554 -29.716   1.187  1.00  0.00     0.132 C 
ATOM     30  C   UNL     1     -30.032 -31.622   1.836  1.00  0.00     0.132 C 
ATOM     31  C   UNL     1     -29.280 -29.705  -0.141  1.00  0.00     0.105 C 
ATOM     32  C   UNL     1     -30.692 -31.484   0.484  1.00  0.00     0.105 C 
ATOM     33  N   UNL     1     -29.719 -31.048  -0.510  1.00  0.00    -0.303 NA
ATOM     34  C   UNL     1     -30.315 -31.057  -1.847  1.00  0.00     0.105 C 
ENDBRANCH  22  28
ENDBRANCH  10  18
BRANCH  13  35
ATOM     35  C   UNL     1     -25.644 -27.626   5.771  1.00  0.00     0.048 C 
BRANCH  35  36
ATOM     36  C   UNL     1     -24.937 -27.651   4.408  1.00  0.00     0.003 CG0
ATOM     37  C   UNL     1     -25.717 -26.710   3.488  1.00  0.00     0.015 C 
ATOM     38  C   UNL     1     -24.959 -29.057   3.801  1.00  0.00     0.015 C 
ATOM     39  G   UNL     1     -23.492 -27.178   4.527  1.00  0.00     0.000 G0
ENDBRANCH  35  36
ENDBRANCH  13  35
ENDBRANCH   3   7
ENDBRANCH   1   2
BRANCH   1  40
ATOM     40  C   UNL     1     -21.917 -19.720   4.927  1.00  0.00     0.179 C 
BRANCH  40  41
ATOM     41  C   UNL     1     -22.034 -20.630   3.716  1.00  0.00     0.259 C 
ATOM     42  O   UNL     1     -22.759 -20.359   2.766  1.00  0.00    -0.271 OA
BRANCH  41  43
ATOM     43  N   UNL     1     -21.345 -21.814   3.741  1.00  0.00    -0.275 N 
ATOM     44  C   UNL     1     -20.245 -22.149   2.823  1.00  0.00     0.140 C 
ATOM     45  N   UNL     1     -21.714 -22.810   4.675  1.00  0.00    -0.218 NA
ATOM     46  C   UNL     1     -20.708 -23.325   1.986  1.00  0.00     0.025 C 
ATOM     47  C   UNL     1     -22.151 -24.016   3.953  1.00  0.00     0.184 C 
ATOM     48  C   UNL     1     -21.107 -24.465   2.918  1.00  0.00     0.035 C 
ATOM     49  H   UNL     1     -20.905 -23.040   5.270  1.00  0.00     0.149 HD
BRANCH  47  50
ATOM     50  C   UNL     1     -22.403 -25.117   4.952  1.00  0.00     0.324 C 
ATOM     51  O   UNL     1     -21.641 -25.420   5.839  1.00  0.00    -0.250 OA
BRANCH  50  52
ATOM     52  O   UNL     1     -23.573 -25.728   4.729  1.00  0.00    -0.464 OA
BRANCH  52  53
ATOM     53  C   UNL     1     -23.483 -27.168   4.529  1.00  0.00     0.239 CG0
ATOM     54  G   UNL     1     -24.921 -27.662   4.413  1.00  0.00     0.000 G0
ENDBRANCH  52  53
ENDBRANCH  50  52
ENDBRANCH  47  50
ENDBRANCH  41  43
ENDBRANCH  40  41
BRANCH  40  55
ATOM     55  N   UNL     1     -21.086 -18.555   4.674  1.00  0.00    -0.344 N 
ATOM     56  C   UNL     1     -19.791 -18.524   5.027  1.00  0.00     0.224 C 
ATOM     57  O   UNL     1     -19.298 -19.334   5.808  1.00  0.00    -0.275 OA
ATOM     58  H   UNL     1     -21.500 -17.734   4.211  1.00  0.00     0.164 HD
BRANCH  56  59
ATOM     59  C   UNL     1     -18.955 -17.512   4.352  1.00  0.00     0.081 C 
ATOM     60  C   UNL     1     -17.575 -17.289   4.904  1.00  0.00     0.018 C 
ATOM     61  C   UNL     1     -17.718 -17.987   3.603  1.00  0.00    -0.001 C 
ATOM     62  C   UNL     1     -17.285 -17.322   2.313  1.00  0.00     0.008 C 
ENDBRANCH  56  59
ENDBRANCH  40  55
ENDBRANCH   1  40
TORSDOF 7
ENDMDL
MODEL 13
REMARK VINA RESULT:    -4.586      4.427      9.393
REMARK INTER + INTRA:         -13.566
REMARK INTER:                  -9.258
REMARK INTRA:                  -4.307
REMARK UNBOUND:                -4.423
REMARK SMILES CCn1c(-c2cc(N3CCN(C)CC3)cnc2[C@H](C)OC)c2c3cc(ccc31)-c1csc(n1)C[C@H](NC(=O)[C@H]1C[C@@H]1C)C(=O)N1CCC[C@H](N1)C(=O)OCC(C)(C)C2
REMARK SMILES IDX 34 1 32 2 29 3 30 4 33 5 31 6 25 7 3 8 28 9 4 10 23 11 27 12
REMARK SMILES IDX 22 13 24 14 26 15 2 16 1 17 5 18 17 19 6 20 16 21 7 22 15 23
REMARK SMILES IDX 18 24 19 25 20 26 21 27 8 28 14 29 9 30 13 31 10 32 11 33
REMARK SMILES IDX 12 34 58 35 55 36 56 37 57 38 35 40 43 41 44 42 45 43 46 44
REMARK SMILES IDX 50 45 47 46 49 47 48 48 51 50 52 51 53 52 54 53 36 55 37 56
REMARK SMILES IDX 38 57 39 59 40 60 41 61 42 62
REMARK H PARENT 50 49 36 58
REMARK Flexibility Score:  160.900
ROOT
ATOM      1  C   UNL     1     -29.506 -14.590   0.400  1.00  0.00     0.102 C 
ENDROOT
BRANCH   1   2
ATOM      2  C   UNL     1     -28.324 -14.578   1.318  1.00  0.00     0.096 A 
ATOM      3  C   UNL     1     -26.856 -15.303   2.804  1.00  0.00     0.081 A 
ATOM      4  C   UNL     1     -26.343 -14.064   2.617  1.00  0.00     0.095 A 
ATOM      5  N   UNL     1     -28.036 -15.566   2.115  1.00  0.00    -0.241 NA
ATOM      6  S   UNL     1     -27.204 -13.262   1.377  1.00  0.00    -0.127 S 
BRANCH   3   7
ATOM      7  C   UNL     1     -26.316 -16.393   3.640  1.00  0.00     0.002 A 
ATOM      8  N   UNL     1     -24.773 -19.544   5.802  1.00  0.00    -0.340 N 
ATOM      9  C   UNL     1     -25.252 -18.386   5.222  1.00  0.00     0.049 A 
ATOM     10  C   UNL     1     -25.077 -20.616   4.981  1.00  0.00     0.054 A 
ATOM     11  C   UNL     1     -25.852 -18.727   3.996  1.00  0.00     0.004 A 
ATOM     12  C   UNL     1     -25.156 -17.070   5.664  1.00  0.00     0.027 A 
ATOM     13  C   UNL     1     -25.744 -20.144   3.852  1.00  0.00    -0.014 A 
ATOM     14  C   UNL     1     -26.388 -17.710   3.198  1.00  0.00     0.021 A 
ATOM     15  C   UNL     1     -25.703 -16.097   4.857  1.00  0.00     0.012 A 
BRANCH   8  16
ATOM     16  C   UNL     1     -24.129 -19.570   7.114  1.00  0.00     0.119 C 
ATOM     17  C   UNL     1     -25.162 -19.427   8.195  1.00  0.00     0.027 C 
ENDBRANCH   8  16
BRANCH  10  18
ATOM     18  C   UNL     1     -24.797 -22.015   5.319  1.00  0.00     0.025 A 
ATOM     19  C   UNL     1     -25.776 -22.890   5.844  1.00  0.00     0.078 A 
ATOM     20  C   UNL     1     -23.503 -22.493   5.127  1.00  0.00     0.039 A 
ATOM     21  N   UNL     1     -25.473 -24.158   6.151  1.00  0.00    -0.256 NA
ATOM     22  C   UNL     1     -23.204 -23.802   5.466  1.00  0.00     0.056 A 
ATOM     23  C   UNL     1     -24.219 -24.605   5.963  1.00  0.00     0.137 A 
BRANCH  19  24
ATOM     24  C   UNL     1     -27.213 -22.469   6.103  1.00  0.00     0.164 C 
ATOM     25  C   UNL     1     -27.408 -22.237   7.586  1.00  0.00     0.045 C 
BRANCH  24  26
ATOM     26  O   UNL     1     -28.061 -23.544   5.700  1.00  0.00    -0.375 OA
ATOM     27  C   UNL     1     -28.965 -23.966   6.710  1.00  0.00     0.195 C 
ENDBRANCH  24  26
ENDBRANCH  19  24
BRANCH  22  28
ATOM     28  N   UNL     1     -21.932 -24.311   5.266  1.00  0.00    -0.368 N 
ATOM     29  C   UNL     1     -21.090 -23.884   4.138  1.00  0.00     0.132 C 
ATOM     30  C   UNL     1     -21.293 -25.168   6.270  1.00  0.00     0.132 C 
ATOM     31  C   UNL     1     -20.140 -24.964   3.667  1.00  0.00     0.105 C 
ATOM     32  C   UNL     1     -20.356 -26.188   5.668  1.00  0.00     0.105 C 
ATOM     33  N   UNL     1     -19.396 -25.533   4.787  1.00  0.00    -0.303 NA
ATOM     34  C   UNL     1     -18.394 -26.493   4.319  1.00  0.00     0.105 C 
ENDBRANCH  22  28
ENDBRANCH  10  18
BRANCH  13  35
ATOM     35  C   UNL     1     -26.285 -20.961   2.712  1.00  0.00     0.048 C 
BRANCH  35  36
ATOM     36  C   UNL     1     -25.308 -21.193   1.550  1.00  0.00     0.003 CG0
ATOM     37  C   UNL     1     -25.059 -22.700   1.475  1.00  0.00     0.015 C 
ATOM     38  C   UNL     1     -23.971 -20.490   1.805  1.00  0.00     0.015 C 
ATOM     39  G   UNL     1     -25.891 -20.698   0.231  1.00  0.00     0.000 G0
ENDBRANCH  35  36
ENDBRANCH  13  35
ENDBRANCH   3   7
ENDBRANCH   1   2
BRANCH   1  40
ATOM     40  C   UNL     1     -29.583 -15.908  -0.385  1.00  0.00     0.179 C 
BRANCH  40  41
ATOM     41  C   UNL     1     -30.848 -16.652   0.009  1.00  0.00     0.259 C 
ATOM     42  O   UNL     1     -31.938 -16.096   0.071  1.00  0.00    -0.271 OA
BRANCH  41  43
ATOM     43  N   UNL     1     -30.726 -17.971   0.362  1.00  0.00    -0.275 N 
ATOM     44  C   UNL     1     -31.310 -18.557   1.579  1.00  0.00     0.140 C 
ATOM     45  N   UNL     1     -29.970 -18.840  -0.459  1.00  0.00    -0.218 NA
ATOM     46  C   UNL     1     -30.156 -19.017   2.447  1.00  0.00     0.025 C 
ATOM     47  C   UNL     1     -28.833 -19.369   0.313  1.00  0.00     0.184 C 
ATOM     48  C   UNL     1     -29.291 -19.985   1.645  1.00  0.00     0.035 C 
ATOM     49  H   UNL     1     -30.564 -19.620  -0.774  1.00  0.00     0.149 HD
BRANCH  47  50
ATOM     50  C   UNL     1     -28.118 -20.403  -0.521  1.00  0.00     0.324 C 
ATOM     51  O   UNL     1     -28.277 -20.548  -1.710  1.00  0.00    -0.250 OA
BRANCH  50  52
ATOM     52  O   UNL     1     -27.292 -21.151   0.220  1.00  0.00    -0.464 OA
BRANCH  52  53
ATOM     53  C   UNL     1     -25.903 -20.712   0.219  1.00  0.00     0.239 CG0
ATOM     54  G   UNL     1     -25.317 -21.186   1.545  1.00  0.00     0.000 G0
ENDBRANCH  52  53
ENDBRANCH  50  52
ENDBRANCH  47  50
ENDBRANCH  41  43
ENDBRANCH  40  41
BRANCH  40  55
ATOM     55  N   UNL     1     -29.482 -15.696  -1.819  1.00  0.00    -0.344 N 
ATOM     56  C   UNL     1     -28.346 -15.945  -2.489  1.00  0.00     0.224 C 
ATOM     57  O   UNL     1     -27.266 -16.101  -1.927  1.00  0.00    -0.275 OA
ATOM     58  H   UNL     1     -30.303 -15.345  -2.333  1.00  0.00     0.164 HD
BRANCH  56  59
ATOM     59  C   UNL     1     -28.477 -16.117  -3.950  1.00  0.00     0.081 C 
ATOM     60  C   UNL     1     -29.680 -15.496  -4.603  1.00  0.00     0.018 C 
ATOM     61  C   UNL     1     -28.349 -14.881  -4.831  1.00  0.00    -0.001 C 
ATOM     62  C   UNL     1     -27.679 -14.956  -6.186  1.00  0.00     0.008 C 
ENDBRANCH  56  59
ENDBRANCH  40  55
ENDBRANCH   1  40
TORSDOF 7
ENDMDL
MODEL 14
REMARK VINA RESULT:    -4.558      5.499      9.774
REMARK INTER + INTRA:         -13.511
REMARK INTER:                 -10.025
REMARK INTRA:                  -3.485
REMARK UNBOUND:                -4.423
REMARK SMILES CCn1c(-c2cc(N3CCN(C)CC3)cnc2[C@H](C)OC)c2c3cc(ccc31)-c1csc(n1)C[C@H](NC(=O)[C@H]1C[C@@H]1C)C(=O)N1CCC[C@H](N1)C(=O)OCC(C)(C)C2
REMARK SMILES IDX 34 1 32 2 29 3 30 4 33 5 31 6 25 7 3 8 28 9 4 10 23 11 27 12
REMARK SMILES IDX 22 13 24 14 26 15 2 16 1 17 5 18 17 19 6 20 16 21 7 22 15 23
REMARK SMILES IDX 18 24 19 25 20 26 21 27 8 28 14 29 9 30 13 31 10 32 11 33
REMARK SMILES IDX 12 34 58 35 55 36 56 37 57 38 35 40 43 41 44 42 45 43 46 44
REMARK SMILES IDX 50 45 47 46 49 47 48 48 51 50 52 51 53 52 54 53 36 55 37 56
REMARK SMILES IDX 38 57 39 59 40 60 41 61 42 62
REMARK H PARENT 50 49 36 58
REMARK Flexibility Score:  160.900
ROOT
ATOM      1  C   UNL     1     -27.857 -21.357   4.974  1.00  0.00     0.102 C 
ENDROOT
BRANCH   1   2
ATOM      2  C   UNL     1     -27.443 -21.933   3.656  1.00  0.00     0.096 A 
ATOM      3  C   UNL     1     -26.306 -23.144   2.198  1.00  0.00     0.081 A 
ATOM      4  C   UNL     1     -27.171 -22.566   1.333  1.00  0.00     0.095 A 
ATOM      5  N   UNL     1     -26.416 -22.719   3.518  1.00  0.00    -0.241 NA
ATOM      6  S   UNL     1     -28.318 -21.635   2.194  1.00  0.00    -0.127 S 
BRANCH   3   7
ATOM      7  C   UNL     1     -25.275 -24.160   1.909  1.00  0.00     0.002 A 
ATOM      8  N   UNL     1     -22.354 -27.005   1.303  1.00  0.00    -0.340 N 
ATOM      9  C   UNL     1     -23.401 -26.106   1.347  1.00  0.00     0.049 A 
ATOM     10  C   UNL     1     -21.489 -26.737   2.350  1.00  0.00     0.054 A 
ATOM     11  C   UNL     1     -23.209 -25.264   2.459  1.00  0.00     0.004 A 
ATOM     12  C   UNL     1     -24.519 -26.007   0.524  1.00  0.00     0.027 A 
ATOM     13  C   UNL     1     -21.990 -25.665   3.087  1.00  0.00    -0.014 A 
ATOM     14  C   UNL     1     -24.166 -24.281   2.738  1.00  0.00     0.021 A 
ATOM     15  C   UNL     1     -25.433 -25.021   0.824  1.00  0.00     0.012 A 
BRANCH   8  16
ATOM     16  C   UNL     1     -22.204 -28.001   0.245  1.00  0.00     0.119 C 
ATOM     17  C   UNL     1     -23.110 -29.170   0.508  1.00  0.00     0.027 C 
ENDBRANCH   8  16
BRANCH  10  18
ATOM     18  C   UNL     1     -20.219 -27.438   2.565  1.00  0.00     0.025 A 
ATOM     19  C   UNL     1     -20.073 -28.498   3.489  1.00  0.00     0.078 A 
ATOM     20  C   UNL     1     -19.108 -27.027   1.834  1.00  0.00     0.039 A 
ATOM     21  N   UNL     1     -18.891 -29.102   3.663  1.00  0.00    -0.256 NA
ATOM     22  C   UNL     1     -17.889 -27.652   2.039  1.00  0.00     0.056 A 
ATOM     23  C   UNL     1     -17.825 -28.693   2.953  1.00  0.00     0.137 A 
BRANCH  19  24
ATOM     24  C   UNL     1     -21.216 -29.017   4.345  1.00  0.00     0.164 C 
ATOM     25  C   UNL     1     -20.662 -29.900   5.442  1.00  0.00     0.045 C 
BRANCH  24  26
ATOM     26  O   UNL     1     -22.059 -29.812   3.511  1.00  0.00    -0.375 OA
ATOM     27  C   UNL     1     -23.268 -30.213   4.138  1.00  0.00     0.195 C 
ENDBRANCH  24  26
ENDBRANCH  19  24
BRANCH  22  28
ATOM     28  N   UNL     1     -16.772 -27.279   1.311  1.00  0.00    -0.368 N 
ATOM     29  C   UNL     1     -16.848 -26.312   0.206  1.00  0.00     0.132 C 
ATOM     30  C   UNL     1     -15.427 -27.695   1.723  1.00  0.00     0.132 C 
ATOM     31  C   UNL     1     -15.808 -26.555  -0.866  1.00  0.00     0.105 C 
ATOM     32  C   UNL     1     -14.483 -27.883   0.559  1.00  0.00     0.105 C 
ATOM     33  N   UNL     1     -14.476 -26.692  -0.283  1.00  0.00    -0.303 NA
ATOM     34  C   UNL     1     -13.455 -26.808  -1.325  1.00  0.00     0.105 C 
ENDBRANCH  22  28
ENDBRANCH  10  18
BRANCH  13  35
ATOM     35  C   UNL     1     -21.362 -25.021   4.291  1.00  0.00     0.048 C 
BRANCH  35  36
ATOM     36  C   UNL     1     -21.992 -25.398   5.640  1.00  0.00     0.003 CG0
ATOM     37  C   UNL     1     -20.844 -25.800   6.568  1.00  0.00     0.015 C 
ATOM     38  C   UNL     1     -22.941 -26.591   5.492  1.00  0.00     0.015 C 
ATOM     39  G   UNL     1     -22.755 -24.221   6.240  1.00  0.00     0.000 G0
ENDBRANCH  35  36
ENDBRANCH  13  35
ENDBRANCH   3   7
ENDBRANCH   1   2
BRANCH   1  40
ATOM     40  C   UNL     1     -27.472 -22.291   6.131  1.00  0.00     0.179 C 
BRANCH  40  41
ATOM     41  C   UNL     1     -26.999 -21.459   7.311  1.00  0.00     0.259 C 
ATOM     42  O   UNL     1     -27.648 -21.369   8.346  1.00  0.00    -0.271 OA
BRANCH  41  43
ATOM     43  N   UNL     1     -25.838 -20.747   7.162  1.00  0.00    -0.275 N 
ATOM     44  C   UNL     1     -25.784 -19.300   6.896  1.00  0.00     0.140 C 
ATOM     45  N   UNL     1     -24.597 -21.423   7.231  1.00  0.00    -0.218 NA
ATOM     46  C   UNL     1     -25.161 -19.124   5.525  1.00  0.00     0.025 C 
ATOM     47  C   UNL     1     -23.895 -21.281   5.945  1.00  0.00     0.184 C 
ATOM     48  C   UNL     1     -23.797 -19.809   5.513  1.00  0.00     0.035 C 
ATOM     49  H   UNL     1     -24.024 -21.016   7.983  1.00  0.00     0.149 HD
BRANCH  47  50
ATOM     50  C   UNL     1     -22.517 -21.880   6.075  1.00  0.00     0.324 C 
ATOM     51  O   UNL     1     -21.601 -21.361   6.667  1.00  0.00    -0.250 OA
BRANCH  50  52
ATOM     52  O   UNL     1     -22.427 -23.055   5.441  1.00  0.00    -0.464 OA
BRANCH  52  53
ATOM     53  C   UNL     1     -22.767 -24.216   6.254  1.00  0.00     0.239 CG0
ATOM     54  G   UNL     1     -22.001 -25.387   5.646  1.00  0.00     0.000 G0
ENDBRANCH  52  53
ENDBRANCH  50  52
ENDBRANCH  47  50
ENDBRANCH  41  43
ENDBRANCH  40  41
BRANCH  40  55
ATOM     55  N   UNL     1     -28.551 -23.198   6.483  1.00  0.00    -0.344 N 
ATOM     56  C   UNL     1     -28.398 -24.531   6.426  1.00  0.00     0.224 C 
ATOM     57  O   UNL     1     -27.465 -25.065   5.833  1.00  0.00    -0.275 OA
ATOM     58  H   UNL     1     -29.456 -22.809   6.783  1.00  0.00     0.164 HD
BRANCH  56  59
ATOM     59  C   UNL     1     -29.367 -25.331   7.200  1.00  0.00     0.081 C 
ATOM     60  C   UNL     1     -30.747 -25.475   6.621  1.00  0.00     0.018 C 
ATOM     61  C   UNL     1     -29.842 -26.651   6.607  1.00  0.00    -0.001 C 
ATOM     62  C   UNL     1     -30.113 -27.850   7.490  1.00  0.00     0.008 C 
ENDBRANCH  56  59
ENDBRANCH  40  55
ENDBRANCH   1  40
TORSDOF 7
ENDMDL
MODEL 15
REMARK VINA RESULT:    -4.530      3.135      5.912
REMARK INTER + INTRA:         -13.455
REMARK INTER:                  -9.043
REMARK INTRA:                  -4.412
REMARK UNBOUND:                -4.423
REMARK SMILES CCn1c(-c2cc(N3CCN(C)CC3)cnc2[C@H](C)OC)c2c3cc(ccc31)-c1csc(n1)C[C@H](NC(=O)[C@H]1C[C@@H]1C)C(=O)N1CCC[C@H](N1)C(=O)OCC(C)(C)C2
REMARK SMILES IDX 34 1 32 2 29 3 30 4 33 5 31 6 25 7 3 8 28 9 4 10 23 11 27 12
REMARK SMILES IDX 22 13 24 14 26 15 2 16 1 17 5 18 17 19 6 20 16 21 7 22 15 23
REMARK SMILES IDX 18 24 19 25 20 26 21 27 8 28 14 29 9 30 13 31 10 32 11 33
REMARK SMILES IDX 12 34 58 35 55 36 56 37 57 38 35 40 43 41 44 42 45 43 46 44
REMARK SMILES IDX 50 45 47 46 49 47 48 48 51 50 52 51 53 52 54 53 36 55 37 56
REMARK SMILES IDX 38 57 39 59 40 60 41 61 42 62
REMARK H PARENT 50 49 36 58
REMARK Flexibility Score:  160.900
ROOT
ATOM      1  C   UNL     1     -28.007 -24.768   3.642  1.00  0.00     0.102 C 
ENDROOT
BRANCH   1   2
ATOM      2  C   UNL     1     -28.587 -23.432   3.298  1.00  0.00     0.096 A 
ATOM      3  C   UNL     1     -28.691 -21.247   2.978  1.00  0.00     0.081 A 
ATOM      4  C   UNL     1     -29.968 -21.550   2.647  1.00  0.00     0.095 A 
ATOM      5  N   UNL     1     -27.925 -22.318   3.425  1.00  0.00    -0.241 NA
ATOM      6  S   UNL     1     -30.183 -23.246   2.661  1.00  0.00    -0.127 S 
BRANCH   3   7
ATOM      7  C   UNL     1     -28.026 -19.931   2.920  1.00  0.00     0.002 A 
ATOM      8  N   UNL     1     -25.987 -16.350   2.786  1.00  0.00    -0.340 N 
ATOM      9  C   UNL     1     -26.803 -17.464   2.742  1.00  0.00     0.049 A 
ATOM     10  C   UNL     1     -24.892 -16.628   3.586  1.00  0.00     0.054 A 
ATOM     11  C   UNL     1     -26.202 -18.477   3.511  1.00  0.00     0.004 A 
ATOM     12  C   UNL     1     -27.991 -17.664   2.046  1.00  0.00     0.027 A 
ATOM     13  C   UNL     1     -24.993 -17.938   4.049  1.00  0.00    -0.014 A 
ATOM     14  C   UNL     1     -26.827 -19.726   3.595  1.00  0.00     0.021 A 
ATOM     15  C   UNL     1     -28.583 -18.903   2.161  1.00  0.00     0.012 A 
BRANCH   8  16
ATOM     16  C   UNL     1     -26.329 -15.088   2.134  1.00  0.00     0.119 C 
ATOM     17  C   UNL     1     -25.716 -15.035   0.764  1.00  0.00     0.027 C 
ENDBRANCH   8  16
BRANCH  10  18
ATOM     18  C   UNL     1     -23.858 -15.647   3.930  1.00  0.00     0.025 A 
ATOM     19  C   UNL     1     -24.044 -14.645   4.910  1.00  0.00     0.078 A 
ATOM     20  C   UNL     1     -22.646 -15.702   3.247  1.00  0.00     0.039 A 
ATOM     21  N   UNL     1     -23.075 -13.761   5.183  1.00  0.00    -0.256 NA
ATOM     22  C   UNL     1     -21.661 -14.769   3.531  1.00  0.00     0.056 A 
ATOM     23  C   UNL     1     -21.911 -13.824   4.514  1.00  0.00     0.137 A 
BRANCH  19  24
ATOM     24  C   UNL     1     -25.329 -14.489   5.704  1.00  0.00     0.164 C 
ATOM     25  C   UNL     1     -25.432 -13.070   6.219  1.00  0.00     0.045 C 
BRANCH  24  26
ATOM     26  O   UNL     1     -25.259 -15.370   6.825  1.00  0.00    -0.375 OA
ATOM     27  C   UNL     1     -25.222 -14.700   8.076  1.00  0.00     0.195 C 
ENDBRANCH  24  26
ENDBRANCH  19  24
BRANCH  22  28
ATOM     28  N   UNL     1     -20.438 -14.812   2.884  1.00  0.00    -0.368 N 
ATOM     29  C   UNL     1     -20.231 -14.193   1.566  1.00  0.00     0.132 C 
ATOM     30  C   UNL     1     -19.241 -15.323   3.561  1.00  0.00     0.132 C 
ATOM     31  C   UNL     1     -19.180 -14.900   0.739  1.00  0.00     0.105 C 
ATOM     32  C   UNL     1     -18.266 -15.987   2.618  1.00  0.00     0.105 C 
ATOM     33  N   UNL     1     -17.953 -15.097   1.506  1.00  0.00    -0.303 NA
ATOM     34  C   UNL     1     -16.898 -15.674   0.673  1.00  0.00     0.105 C 
ENDBRANCH  22  28
ENDBRANCH  10  18
BRANCH  13  35
ATOM     35  C   UNL     1     -24.040 -18.649   4.970  1.00  0.00     0.048 C 
BRANCH  35  36
ATOM     36  C   UNL     1     -23.033 -19.580   4.279  1.00  0.00     0.003 CG0
ATOM     37  C   UNL     1     -21.638 -19.102   4.683  1.00  0.00     0.015 C 
ATOM     38  C   UNL     1     -23.156 -19.492   2.754  1.00  0.00     0.015 C 
ATOM     39  G   UNL     1     -23.231 -21.028   4.715  1.00  0.00     0.000 G0
ENDBRANCH  35  36
ENDBRANCH  13  35
ENDBRANCH   3   7
ENDBRANCH   1   2
BRANCH   1  40
ATOM     40  C   UNL     1     -26.865 -24.629   4.661  1.00  0.00     0.179 C 
BRANCH  40  41
ATOM     41  C   UNL     1     -27.451 -24.538   6.059  1.00  0.00     0.259 C 
ATOM     42  O   UNL     1     -28.498 -25.097   6.364  1.00  0.00    -0.271 OA
BRANCH  41  43
ATOM     43  N   UNL     1     -26.800 -23.749   6.972  1.00  0.00    -0.275 N 
ATOM     44  C   UNL     1     -27.480 -22.938   7.995  1.00  0.00     0.140 C 
ATOM     45  N   UNL     1     -25.389 -23.662   6.931  1.00  0.00    -0.218 NA
ATOM     46  C   UNL     1     -27.181 -21.486   7.680  1.00  0.00     0.025 C 
ATOM     47  C   UNL     1     -24.996 -22.270   6.661  1.00  0.00     0.184 C 
ATOM     48  C   UNL     1     -25.669 -21.292   7.638  1.00  0.00     0.035 C 
ATOM     49  H   UNL     1     -24.999 -23.960   7.837  1.00  0.00     0.149 HD
BRANCH  47  50
ATOM     50  C   UNL     1     -23.495 -22.160   6.763  1.00  0.00     0.324 C 
ATOM     51  O   UNL     1     -22.790 -22.956   7.336  1.00  0.00    -0.250 OA
BRANCH  50  52
ATOM     52  O   UNL     1     -23.037 -21.063   6.148  1.00  0.00    -0.464 OA
BRANCH  52  53
ATOM     53  C   UNL     1     -23.232 -21.045   4.704  1.00  0.00     0.239 CG0
ATOM     54  G   UNL     1     -23.033 -19.594   4.277  1.00  0.00     0.000 G0
ENDBRANCH  52  53
ENDBRANCH  50  52
ENDBRANCH  47  50
ENDBRANCH  41  43
ENDBRANCH  40  41
BRANCH  40  55
ATOM     55  N   UNL     1     -25.886 -25.695   4.532  1.00  0.00    -0.344 N 
ATOM     56  C   UNL     1     -24.683 -25.482   3.974  1.00  0.00     0.224 C 
ATOM     57  O   UNL     1     -24.431 -24.483   3.306  1.00  0.00    -0.275 OA
ATOM     58  H   UNL     1     -26.120 -26.636   4.878  1.00  0.00     0.164 HD
BRANCH  56  59
ATOM     59  C   UNL     1     -23.637 -26.477   4.283  1.00  0.00     0.081 C 
ATOM     60  C   UNL     1     -22.314 -26.311   3.589  1.00  0.00     0.018 C 
ATOM     61  C   UNL     1     -22.402 -26.007   5.039  1.00  0.00    -0.001 C 
ATOM     62  C   UNL     1     -21.729 -26.896   6.062  1.00  0.00     0.008 C 
ENDBRANCH  56  59
ENDBRANCH  40  55
ENDBRANCH   1  40
TORSDOF 7
ENDMDL
MODEL 16
REMARK VINA RESULT:    -4.492      3.395      9.849
REMARK INTER + INTRA:         -13.379
REMARK INTER:                  -9.180
REMARK INTRA:                  -4.199
REMARK UNBOUND:                -4.423
REMARK SMILES CCn1c(-c2cc(N3CCN(C)CC3)cnc2[C@H](C)OC)c2c3cc(ccc31)-c1csc(n1)C[C@H](NC(=O)[C@H]1C[C@@H]1C)C(=O)N1CCC[C@H](N1)C(=O)OCC(C)(C)C2
REMARK SMILES IDX 34 1 32 2 29 3 30 4 33 5 31 6 25 7 3 8 28 9 4 10 23 11 27 12
REMARK SMILES IDX 22 13 24 14 26 15 2 16 1 17 5 18 17 19 6 20 16 21 7 22 15 23
REMARK SMILES IDX 18 24 19 25 20 26 21 27 8 28 14 29 9 30 13 31 10 32 11 33
REMARK SMILES IDX 12 34 58 35 55 36 56 37 57 38 35 40 43 41 44 42 45 43 46 44
REMARK SMILES IDX 50 45 47 46 49 47 48 48 51 50 52 51 53 52 54 53 36 55 37 56
REMARK SMILES IDX 38 57 39 59 40 60 41 61 42 62
REMARK H PARENT 50 49 36 58
REMARK Flexibility Score:  160.900
ROOT
ATOM      1  C   UNL     1     -24.049 -13.059   2.697  1.00  0.00     0.102 C 
ENDROOT
BRANCH   1   2
ATOM      2  C   UNL     1     -24.659 -13.668   3.921  1.00  0.00     0.096 A 
ATOM      3  C   UNL     1     -25.299 -15.227   5.351  1.00  0.00     0.081 A 
ATOM      4  C   UNL     1     -25.751 -14.147   6.031  1.00  0.00     0.095 A 
ATOM      5  N   UNL     1     -24.742 -14.953   4.106  1.00  0.00    -0.241 NA
ATOM      6  S   UNL     1     -25.276 -12.715   5.226  1.00  0.00    -0.127 S 
BRANCH   3   7
ATOM      7  C   UNL     1     -25.327 -16.641   5.772  1.00  0.00     0.002 A 
ATOM      8  N   UNL     1     -25.329 -20.642   6.763  1.00  0.00    -0.340 N 
ATOM      9  C   UNL     1     -25.326 -19.270   6.609  1.00  0.00     0.049 A 
ATOM     10  C   UNL     1     -25.515 -21.232   5.524  1.00  0.00     0.054 A 
ATOM     11  C   UNL     1     -25.491 -18.982   5.242  1.00  0.00     0.004 A 
ATOM     12  C   UNL     1     -25.143 -18.273   7.562  1.00  0.00     0.027 A 
ATOM     13  C   UNL     1     -25.617 -20.231   4.559  1.00  0.00    -0.014 A 
ATOM     14  C   UNL     1     -25.488 -17.646   4.825  1.00  0.00     0.021 A 
ATOM     15  C   UNL     1     -25.156 -16.970   7.116  1.00  0.00     0.012 A 
BRANCH   8  16
ATOM     16  C   UNL     1     -25.228 -21.298   8.064  1.00  0.00     0.119 C 
ATOM     17  C   UNL     1     -23.797 -21.319   8.520  1.00  0.00     0.027 C 
ENDBRANCH   8  16
BRANCH  10  18
ATOM     18  C   UNL     1     -25.657 -22.676   5.315  1.00  0.00     0.025 A 
ATOM     19  C   UNL     1     -24.664 -23.464   4.690  1.00  0.00     0.078 A 
ATOM     20  C   UNL     1     -26.832 -23.290   5.741  1.00  0.00     0.039 A 
ATOM     21  N   UNL     1     -24.842 -24.779   4.508  1.00  0.00    -0.256 NA
ATOM     22  C   UNL     1     -27.006 -24.648   5.530  1.00  0.00     0.056 A 
ATOM     23  C   UNL     1     -25.983 -25.359   4.921  1.00  0.00     0.137 A 
BRANCH  19  24
ATOM     24  C   UNL     1     -23.352 -22.894   4.178  1.00  0.00     0.164 C 
ATOM     25  C   UNL     1     -23.247 -23.135   2.688  1.00  0.00     0.045 C 
BRANCH  24  26
ATOM     26  O   UNL     1     -22.290 -23.598   4.823  1.00  0.00    -0.375 OA
ATOM     27  C   UNL     1     -22.236 -23.388   6.226  1.00  0.00     0.195 C 
ENDBRANCH  24  26
ENDBRANCH  19  24
BRANCH  22  28
ATOM     28  N   UNL     1     -28.154 -25.290   5.962  1.00  0.00    -0.368 N 
ATOM     29  C   UNL     1     -28.357 -26.735   5.778  1.00  0.00     0.132 C 
ATOM     30  C   UNL     1     -29.147 -24.591   6.785  1.00  0.00     0.132 C 
ATOM     31  C   UNL     1     -29.814 -27.113   5.628  1.00  0.00     0.105 C 
ATOM     32  C   UNL     1     -30.557 -25.079   6.553  1.00  0.00     0.105 C 
ATOM     33  N   UNL     1     -30.620 -26.528   6.696  1.00  0.00    -0.303 NA
ATOM     34  C   UNL     1     -32.007 -26.989   6.620  1.00  0.00     0.105 C 
ENDBRANCH  22  28
ENDBRANCH  10  18
BRANCH  13  35
ATOM     35  C   UNL     1     -25.852 -20.415   3.086  1.00  0.00     0.048 C 
BRANCH  35  36
ATOM     36  C   UNL     1     -27.322 -20.360   2.645  1.00  0.00     0.003 CG0
ATOM     37  C   UNL     1     -28.140 -19.974   3.878  1.00  0.00     0.015 C 
ATOM     38  C   UNL     1     -27.801 -21.727   2.149  1.00  0.00     0.015 C 
ATOM     39  G   UNL     1     -27.529 -19.326   1.542  1.00  0.00     0.000 G0
ENDBRANCH  35  36
ENDBRANCH  13  35
ENDBRANCH   3   7
ENDBRANCH   1   2
BRANCH   1  40
ATOM     40  C   UNL     1     -24.875 -13.392   1.444  1.00  0.00     0.179 C 
BRANCH  40  41
ATOM     41  C   UNL     1     -24.113 -14.396   0.596  1.00  0.00     0.259 C 
ATOM     42  O   UNL     1     -23.519 -14.067  -0.424  1.00  0.00    -0.271 OA
BRANCH  41  43
ATOM     43  N   UNL     1     -24.161 -15.713   0.971  1.00  0.00    -0.275 N 
ATOM     44  C   UNL     1     -23.028 -16.446   1.558  1.00  0.00     0.140 C 
ATOM     45  N   UNL     1     -25.351 -16.449   0.765  1.00  0.00    -0.218 NA
ATOM     46  C   UNL     1     -22.652 -17.539   0.578  1.00  0.00     0.025 C 
ATOM     47  C   UNL     1     -25.078 -17.564  -0.158  1.00  0.00     0.184 C 
ATOM     48  C   UNL     1     -23.879 -18.404   0.311  1.00  0.00     0.035 C 
ATOM     49  H   UNL     1     -25.687 -16.821   1.664  1.00  0.00     0.149 HD
BRANCH  47  50
ATOM     50  C   UNL     1     -26.312 -18.425  -0.258  1.00  0.00     0.324 C 
ATOM     51  O   UNL     1     -27.170 -18.292  -1.098  1.00  0.00    -0.250 OA
BRANCH  50  52
ATOM     52  O   UNL     1     -26.348 -19.351   0.707  1.00  0.00    -0.464 OA
BRANCH  52  53
ATOM     53  C   UNL     1     -27.541 -19.318   1.543  1.00  0.00     0.239 CG0
ATOM     54  G   UNL     1     -27.311 -20.358   2.635  1.00  0.00     0.000 G0
ENDBRANCH  52  53
ENDBRANCH  50  52
ENDBRANCH  47  50
ENDBRANCH  41  43
ENDBRANCH  40  41
BRANCH  40  55
ATOM     55  N   UNL     1     -26.215 -13.843   1.778  1.00  0.00    -0.344 N 
ATOM     56  C   UNL     1     -27.304 -13.161   1.389  1.00  0.00     0.224 C 
ATOM     57  O   UNL     1     -27.250 -12.006   0.978  1.00  0.00    -0.275 OA
ATOM     58  H   UNL     1     -26.332 -14.707   2.326  1.00  0.00     0.164 HD
BRANCH  56  59
ATOM     59  C   UNL     1     -28.577 -13.909   1.394  1.00  0.00     0.081 C 
ATOM     60  C   UNL     1     -29.393 -13.873   0.132  1.00  0.00     0.018 C 
ATOM     61  C   UNL     1     -28.693 -15.131   0.492  1.00  0.00    -0.001 C 
ATOM     62  C   UNL     1     -29.470 -16.354   0.932  1.00  0.00     0.008 C 
ENDBRANCH  56  59
ENDBRANCH  40  55
ENDBRANCH   1  40
TORSDOF 7
ENDMDL
MODEL 17
REMARK VINA RESULT:    -4.480      3.306     10.151
REMARK INTER + INTRA:         -13.354
REMARK INTER:                  -9.176
REMARK INTRA:                  -4.179
REMARK UNBOUND:                -4.423
REMARK SMILES CCn1c(-c2cc(N3CCN(C)CC3)cnc2[C@H](C)OC)c2c3cc(ccc31)-c1csc(n1)C[C@H](NC(=O)[C@H]1C[C@@H]1C)C(=O)N1CCC[C@H](N1)C(=O)OCC(C)(C)C2
REMARK SMILES IDX 34 1 32 2 29 3 30 4 33 5 31 6 25 7 3 8 28 9 4 10 23 11 27 12
REMARK SMILES IDX 22 13 24 14 26 15 2 16 1 17 5 18 17 19 6 20 16 21 7 22 15 23
REMARK SMILES IDX 18 24 19 25 20 26 21 27 8 28 14 29 9 30 13 31 10 32 11 33
REMARK SMILES IDX 12 34 58 35 55 36 56 37 57 38 35 40 43 41 44 42 45 43 46 44
REMARK SMILES IDX 50 45 47 46 49 47 48 48 51 50 52 51 53 52 54 53 36 55 37 56
REMARK SMILES IDX 38 57 39 59 40 60 41 61 42 62
REMARK H PARENT 50 49 36 58
REMARK Flexibility Score:  160.900
ROOT
ATOM      1  C   UNL     1     -24.320 -17.874   4.353  1.00  0.00     0.102 C 
ENDROOT
BRANCH   1   2
ATOM      2  C   UNL     1     -25.766 -17.713   4.005  1.00  0.00     0.096 A 
ATOM      3  C   UNL     1     -27.806 -18.260   3.352  1.00  0.00     0.081 A 
ATOM      4  C   UNL     1     -28.024 -16.942   3.574  1.00  0.00     0.095 A 
ATOM      5  N   UNL     1     -26.492 -18.681   3.527  1.00  0.00    -0.241 NA
ATOM      6  S   UNL     1     -26.622 -16.228   4.242  1.00  0.00    -0.127 S 
BRANCH   3   7
ATOM      7  C   UNL     1     -28.788 -19.288   2.955  1.00  0.00     0.002 A 
ATOM      8  N   UNL     1     -31.451 -22.283   1.989  1.00  0.00    -0.340 N 
ATOM      9  C   UNL     1     -30.677 -21.166   2.235  1.00  0.00     0.049 A 
ATOM     10  C   UNL     1     -30.728 -23.413   2.328  1.00  0.00     0.054 A 
ATOM     11  C   UNL     1     -29.445 -21.595   2.763  1.00  0.00     0.004 A 
ATOM     12  C   UNL     1     -30.990 -19.819   2.077  1.00  0.00     0.027 A 
ATOM     13  C   UNL     1     -29.481 -23.022   2.813  1.00  0.00    -0.014 A 
ATOM     14  C   UNL     1     -28.493 -20.636   3.128  1.00  0.00     0.021 A 
ATOM     15  C   UNL     1     -30.025 -18.905   2.437  1.00  0.00     0.012 A 
BRANCH   8  16
ATOM     16  C   UNL     1     -32.781 -22.212   1.389  1.00  0.00     0.119 C 
ATOM     17  C   UNL     1     -32.665 -22.028  -0.097  1.00  0.00     0.027 C 
ENDBRANCH   8  16
BRANCH  10  18
ATOM     18  C   UNL     1     -31.202 -24.784   2.118  1.00  0.00     0.025 A 
ATOM     19  C   UNL     1     -31.052 -25.471   0.891  1.00  0.00     0.078 A 
ATOM     20  C   UNL     1     -31.841 -25.429   3.175  1.00  0.00     0.039 A 
ATOM     21  N   UNL     1     -31.512 -26.720   0.740  1.00  0.00    -0.256 NA
ATOM     22  C   UNL     1     -32.325 -26.714   2.995  1.00  0.00     0.056 A 
ATOM     23  C   UNL     1     -32.130 -27.329   1.767  1.00  0.00     0.137 A 
BRANCH  19  24
ATOM     24  C   UNL     1     -30.382 -24.858  -0.327  1.00  0.00     0.164 C 
ATOM     25  C   UNL     1     -30.722 -25.678  -1.553  1.00  0.00     0.045 C 
BRANCH  24  26
ATOM     26  O   UNL     1     -28.970 -24.918  -0.123  1.00  0.00    -0.375 OA
ATOM     27  C   UNL     1     -28.218 -24.859  -1.326  1.00  0.00     0.195 C 
ENDBRANCH  24  26
ENDBRANCH  19  24
BRANCH  22  28
ATOM     28  N   UNL     1     -32.945 -27.387   4.033  1.00  0.00    -0.368 N 
ATOM     29  C   UNL     1     -32.494 -27.257   5.427  1.00  0.00     0.132 C 
ATOM     30  C   UNL     1     -34.195 -28.124   3.818  1.00  0.00     0.132 C 
ATOM     31  C   UNL     1     -32.751 -28.500   6.251  1.00  0.00     0.105 C 
ATOM     32  C   UNL     1     -34.334 -29.330   4.717  1.00  0.00     0.105 C 
ATOM     33  N   UNL     1     -34.134 -28.946   6.110  1.00  0.00    -0.303 NA
ATOM     34  C   UNL     1     -34.414 -30.077   6.996  1.00  0.00     0.105 C 
ENDBRANCH  22  28
ENDBRANCH  10  18
BRANCH  13  35
ATOM     35  C   UNL     1     -28.365 -23.920   3.269  1.00  0.00     0.048 C 
BRANCH  35  36
ATOM     36  C   UNL     1     -28.359 -24.247   4.770  1.00  0.00     0.003 CG0
ATOM     37  C   UNL     1     -28.011 -25.731   4.897  1.00  0.00     0.015 C 
ATOM     38  C   UNL     1     -29.739 -24.014   5.391  1.00  0.00     0.015 C 
ATOM     39  G   UNL     1     -27.325 -23.407   5.514  1.00  0.00     0.000 G0
ENDBRANCH  35  36
ENDBRANCH  13  35
ENDBRANCH   3   7
ENDBRANCH   1   2
BRANCH   1  40
ATOM     40  C   UNL     1     -24.104 -19.086   5.273  1.00  0.00     0.179 C 
BRANCH  40  41
ATOM     41  C   UNL     1     -24.771 -18.822   6.613  1.00  0.00     0.259 C 
ATOM     42  O   UNL     1     -25.168 -17.708   6.933  1.00  0.00    -0.271 OA
BRANCH  41  43
ATOM     43  N   UNL     1     -24.861 -19.866   7.495  1.00  0.00    -0.275 N 
ATOM     44  C   UNL     1     -23.711 -20.450   8.203  1.00  0.00     0.140 C 
ATOM     45  N   UNL     1     -26.121 -20.461   7.736  1.00  0.00    -0.218 NA
ATOM     46  C   UNL     1     -23.572 -21.880   7.719  1.00  0.00     0.025 C 
ATOM     47  C   UNL     1     -26.077 -21.874   7.325  1.00  0.00     0.184 C 
ATOM     48  C   UNL     1     -24.889 -22.612   7.963  1.00  0.00     0.035 C 
ATOM     49  H   UNL     1     -26.344 -20.402   8.740  1.00  0.00     0.149 HD
BRANCH  47  50
ATOM     50  C   UNL     1     -27.374 -22.536   7.718  1.00  0.00     0.324 C 
ATOM     51  O   UNL     1     -28.078 -22.170   8.629  1.00  0.00    -0.250 OA
BRANCH  50  52
ATOM     52  O   UNL     1     -27.647 -23.589   6.940  1.00  0.00    -0.464 OA
BRANCH  52  53
ATOM     53  C   UNL     1     -27.349 -23.400   5.526  1.00  0.00     0.239 CG0
ATOM     54  G   UNL     1     -28.364 -24.251   4.770  1.00  0.00     0.000 G0
ENDBRANCH  52  53
ENDBRANCH  50  52
ENDBRANCH  47  50
ENDBRANCH  41  43
ENDBRANCH  40  41
BRANCH  40  55
ATOM     55  N   UNL     1     -24.553 -20.324   4.659  1.00  0.00    -0.344 N 
ATOM     56  C   UNL     1     -23.707 -21.127   3.994  1.00  0.00     0.224 C 
ATOM     57  O   UNL     1     -22.594 -20.758   3.629  1.00  0.00    -0.275 OA
ATOM     58  H   UNL     1     -25.544 -20.592   4.736  1.00  0.00     0.164 HD
BRANCH  56  59
ATOM     59  C   UNL     1     -24.149 -22.521   3.800  1.00  0.00     0.081 C 
ATOM     60  C   UNL     1     -23.223 -23.431   3.043  1.00  0.00     0.018 C 
ATOM     61  C   UNL     1     -23.374 -23.625   4.506  1.00  0.00    -0.001 C 
ATOM     62  C   UNL     1     -24.080 -24.843   5.060  1.00  0.00     0.008 C 
ENDBRANCH  56  59
ENDBRANCH  40  55
ENDBRANCH   1  40
TORSDOF 7
ENDMDL
MODEL 18
REMARK VINA RESULT:    -4.464     10.420     15.340
REMARK INTER + INTRA:         -13.324
REMARK INTER:                  -9.440
REMARK INTRA:                  -3.884
REMARK UNBOUND:                -4.423
REMARK SMILES CCn1c(-c2cc(N3CCN(C)CC3)cnc2[C@H](C)OC)c2c3cc(ccc31)-c1csc(n1)C[C@H](NC(=O)[C@H]1C[C@@H]1C)C(=O)N1CCC[C@H](N1)C(=O)OCC(C)(C)C2
REMARK SMILES IDX 34 1 32 2 29 3 30 4 33 5 31 6 25 7 3 8 28 9 4 10 23 11 27 12
REMARK SMILES IDX 22 13 24 14 26 15 2 16 1 17 5 18 17 19 6 20 16 21 7 22 15 23
REMARK SMILES IDX 18 24 19 25 20 26 21 27 8 28 14 29 9 30 13 31 10 32 11 33
REMARK SMILES IDX 12 34 58 35 55 36 56 37 57 38 35 40 43 41 44 42 45 43 46 44
REMARK SMILES IDX 50 45 47 46 49 47 48 48 51 50 52 51 53 52 54 53 36 55 37 56
REMARK SMILES IDX 38 57 39 59 40 60 41 61 42 62
REMARK H PARENT 50 49 36 58
REMARK Flexibility Score:  160.900
ROOT
ATOM      1  C   UNL     1     -11.765 -25.579  -1.794  1.00  0.00     0.102 C 
ENDROOT
BRANCH   1   2
ATOM      2  C   UNL     1     -12.032 -26.319  -0.521  1.00  0.00     0.096 A 
ATOM      3  C   UNL     1     -13.133 -27.504   0.986  1.00  0.00     0.081 A 
ATOM      4  C   UNL     1     -11.963 -27.381   1.657  1.00  0.00     0.095 A 
ATOM      5  N   UNL     1     -13.194 -26.828  -0.228  1.00  0.00    -0.241 NA
ATOM      6  S   UNL     1     -10.808 -26.600   0.668  1.00  0.00    -0.127 S 
BRANCH   3   7
ATOM      7  C   UNL     1     -14.333 -28.263   1.387  1.00  0.00     0.002 A 
ATOM      8  N   UNL     1     -17.794 -30.277   2.366  1.00  0.00    -0.340 N 
ATOM      9  C   UNL     1     -16.547 -29.742   2.112  1.00  0.00     0.049 A 
ATOM     10  C   UNL     1     -18.758 -29.334   2.054  1.00  0.00     0.054 A 
ATOM     11  C   UNL     1     -16.723 -28.441   1.607  1.00  0.00     0.004 A 
ATOM     12  C   UNL     1     -15.290 -30.325   2.244  1.00  0.00     0.027 A 
ATOM     13  C   UNL     1     -18.128 -28.185   1.578  1.00  0.00    -0.014 A 
ATOM     14  C   UNL     1     -15.595 -27.698   1.239  1.00  0.00     0.021 A 
ATOM     15  C   UNL     1     -14.203 -29.560   1.883  1.00  0.00     0.012 A 
BRANCH   8  16
ATOM     16  C   UNL     1     -17.988 -31.603   2.947  1.00  0.00     0.119 C 
ATOM     17  C   UNL     1     -17.855 -31.533   4.442  1.00  0.00     0.027 C 
ENDBRANCH   8  16
BRANCH  10  18
ATOM     18  C   UNL     1     -20.195 -29.523   2.278  1.00  0.00     0.025 A 
ATOM     19  C   UNL     1     -20.835 -29.182   3.492  1.00  0.00     0.078 A 
ATOM     20  C   UNL     1     -20.954 -30.078   1.251  1.00  0.00     0.039 A 
ATOM     21  N   UNL     1     -22.148 -29.384   3.659  1.00  0.00    -0.256 NA
ATOM     22  C   UNL     1     -22.309 -30.295   1.447  1.00  0.00     0.056 A 
ATOM     23  C   UNL     1     -22.869 -29.924   2.660  1.00  0.00     0.137 A 
BRANCH  19  24
ATOM     24  C   UNL     1     -20.099 -28.582   4.679  1.00  0.00     0.164 C 
ATOM     25  C   UNL     1     -20.871 -28.874   5.947  1.00  0.00     0.045 C 
BRANCH  24  26
ATOM     26  O   UNL     1     -20.055 -27.167   4.494  1.00  0.00    -0.375 OA
ATOM     27  C   UNL     1     -18.859 -26.568   4.967  1.00  0.00     0.195 C 
ENDBRANCH  24  26
ENDBRANCH  19  24
BRANCH  22  28
ATOM     28  N   UNL     1     -23.093 -30.825   0.437  1.00  0.00    -0.368 N 
ATOM     29  C   UNL     1     -22.510 -31.527  -0.716  1.00  0.00     0.132 C 
ATOM     30  C   UNL     1     -24.554 -30.869   0.558  1.00  0.00     0.132 C 
ATOM     31  C   UNL     1     -23.342 -31.394  -1.973  1.00  0.00     0.105 C 
ATOM     32  C   UNL     1     -25.261 -30.745  -0.771  1.00  0.00     0.105 C 
ATOM     33  N   UNL     1     -24.740 -31.727  -1.714  1.00  0.00    -0.303 NA
ATOM     34  C   UNL     1     -25.522 -31.713  -2.951  1.00  0.00     0.105 C 
ENDBRANCH  22  28
ENDBRANCH  10  18
BRANCH  13  35
ATOM     35  C   UNL     1     -18.786 -26.903   1.151  1.00  0.00     0.048 C 
BRANCH  35  36
ATOM     36  C   UNL     1     -18.859 -26.679  -0.367  1.00  0.00     0.003 CG0
ATOM     37  C   UNL     1     -20.304 -26.291  -0.688  1.00  0.00     0.015 C 
ATOM     38  C   UNL     1     -18.516 -27.961  -1.132  1.00  0.00     0.015 C 
ATOM     39  G   UNL     1     -17.914 -25.565  -0.807  1.00  0.00     0.000 G0
ENDBRANCH  35  36
ENDBRANCH  13  35
ENDBRANCH   3   7
ENDBRANCH   1   2
BRANCH   1  40
ATOM     40  C   UNL     1     -12.733 -26.020  -2.903  1.00  0.00     0.179 C 
BRANCH  40  41
ATOM     41  C   UNL     1     -12.901 -24.886  -3.900  1.00  0.00     0.259 C 
ATOM     42  O   UNL     1     -12.147 -24.741  -4.854  1.00  0.00    -0.271 OA
BRANCH  41  43
ATOM     43  N   UNL     1     -13.898 -23.975  -3.665  1.00  0.00    -0.275 N 
ATOM     44  C   UNL     1     -13.669 -22.612  -3.160  1.00  0.00     0.140 C 
ATOM     45  N   UNL     1     -15.244 -24.351  -3.883  1.00  0.00    -0.218 NA
ATOM     46  C   UNL     1     -14.328 -22.528  -1.797  1.00  0.00     0.025 C 
ATOM     47  C   UNL     1     -15.982 -24.269  -2.611  1.00  0.00     0.184 C 
ATOM     48  C   UNL     1     -15.801 -22.898  -1.940  1.00  0.00     0.035 C 
ATOM     49  H   UNL     1     -15.673 -23.715  -4.571  1.00  0.00     0.149 HD
BRANCH  47  50
ATOM     50  C   UNL     1     -17.443 -24.531  -2.880  1.00  0.00     0.324 C 
ATOM     51  O   UNL     1     -18.149 -23.824  -3.559  1.00  0.00    -0.250 OA
BRANCH  50  52
ATOM     52  O   UNL     1     -17.868 -25.639  -2.262  1.00  0.00    -0.464 OA
BRANCH  52  53
ATOM     53  C   UNL     1     -17.915 -25.550  -0.809  1.00  0.00     0.239 CG0
ATOM     54  G   UNL     1     -18.855 -26.663  -0.355  1.00  0.00     0.000 G0
ENDBRANCH  52  53
ENDBRANCH  50  52
ENDBRANCH  47  50
ENDBRANCH  41  43
ENDBRANCH  40  41
BRANCH  40  55
ATOM     55  N   UNL     1     -12.314 -27.261  -3.532  1.00  0.00    -0.344 N 
ATOM     56  C   UNL     1     -13.189 -28.242  -3.805  1.00  0.00     0.224 C 
ATOM     57  O   UNL     1     -14.314 -28.281  -3.315  1.00  0.00    -0.275 OA
ATOM     58  H   UNL     1     -11.322 -27.391  -3.774  1.00  0.00     0.164 HD
BRANCH  56  59
ATOM     59  C   UNL     1     -12.760 -29.236  -4.809  1.00  0.00     0.081 C 
ATOM     60  C   UNL     1     -13.368 -29.127  -6.179  1.00  0.00     0.018 C 
ATOM     61  C   UNL     1     -11.945 -28.748  -5.998  1.00  0.00    -0.001 C 
ATOM     62  C   UNL     1     -10.835 -29.595  -6.584  1.00  0.00     0.008 C 
ENDBRANCH  56  59
ENDBRANCH  40  55
ENDBRANCH   1  40
TORSDOF 7
ENDMDL
MODEL 19
REMARK VINA RESULT:    -4.464      5.368      8.248
REMARK INTER + INTRA:         -13.322
REMARK INTER:                  -9.293
REMARK INTRA:                  -4.030
REMARK UNBOUND:                -4.423
REMARK SMILES CCn1c(-c2cc(N3CCN(C)CC3)cnc2[C@H](C)OC)c2c3cc(ccc31)-c1csc(n1)C[C@H](NC(=O)[C@H]1C[C@@H]1C)C(=O)N1CCC[C@H](N1)C(=O)OCC(C)(C)C2
REMARK SMILES IDX 34 1 32 2 29 3 30 4 33 5 31 6 25 7 3 8 28 9 4 10 23 11 27 12
REMARK SMILES IDX 22 13 24 14 26 15 2 16 1 17 5 18 17 19 6 20 16 21 7 22 15 23
REMARK SMILES IDX 18 24 19 25 20 26 21 27 8 28 14 29 9 30 13 31 10 32 11 33
REMARK SMILES IDX 12 34 58 35 55 36 56 37 57 38 35 40 43 41 44 42 45 43 46 44
REMARK SMILES IDX 50 45 47 46 49 47 48 48 51 50 52 51 53 52 54 53 36 55 37 56
REMARK SMILES IDX 38 57 39 59 40 60 41 61 42 62
REMARK H PARENT 50 49 36 58
REMARK Flexibility Score:  160.900
ROOT
ATOM      1  C   UNL     1     -18.231 -25.207   3.900  1.00  0.00     0.102 C 
ENDROOT
BRANCH   1   2
ATOM      2  C   UNL     1     -19.367 -25.331   4.867  1.00  0.00     0.096 A 
ATOM      3  C   UNL     1     -21.337 -24.954   5.798  1.00  0.00     0.081 A 
ATOM      4  C   UNL     1     -20.894 -25.898   6.662  1.00  0.00     0.095 A 
ATOM      5  N   UNL     1     -20.427 -24.577   4.816  1.00  0.00    -0.241 NA
ATOM      6  S   UNL     1     -19.394 -26.518   6.124  1.00  0.00    -0.127 S 
BRANCH   3   7
ATOM      7  C   UNL     1     -22.654 -24.290   5.776  1.00  0.00     0.002 A 
ATOM      8  N   UNL     1     -26.399 -22.579   5.585  1.00  0.00    -0.340 N 
ATOM      9  C   UNL     1     -25.125 -23.064   5.806  1.00  0.00     0.049 A 
ATOM     10  C   UNL     1     -26.806 -22.949   4.314  1.00  0.00     0.054 A 
ATOM     11  C   UNL     1     -24.723 -23.776   4.661  1.00  0.00     0.004 A 
ATOM     12  C   UNL     1     -24.327 -22.968   6.941  1.00  0.00     0.027 A 
ATOM     13  C   UNL     1     -25.791 -23.694   3.715  1.00  0.00    -0.014 A 
ATOM     14  C   UNL     1     -23.469 -24.397   4.655  1.00  0.00     0.021 A 
ATOM     15  C   UNL     1     -23.095 -23.583   6.894  1.00  0.00     0.012 A 
BRANCH   8  16
ATOM     16  C   UNL     1     -27.113 -21.747   6.550  1.00  0.00     0.119 C 
ATOM     17  C   UNL     1     -27.732 -22.609   7.613  1.00  0.00     0.027 C 
ENDBRANCH   8  16
BRANCH  10  18
ATOM     18  C   UNL     1     -28.073 -22.534   3.704  1.00  0.00     0.025 A 
ATOM     19  C   UNL     1     -29.260 -23.294   3.807  1.00  0.00     0.078 A 
ATOM     20  C   UNL     1     -28.097 -21.345   2.981  1.00  0.00     0.039 A 
ATOM     21  N   UNL     1     -30.394 -22.884   3.222  1.00  0.00    -0.256 NA
ATOM     22  C   UNL     1     -29.274 -20.944   2.369  1.00  0.00     0.056 A 
ATOM     23  C   UNL     1     -30.402 -21.735   2.524  1.00  0.00     0.137 A 
BRANCH  19  24
ATOM     24  C   UNL     1     -29.341 -24.611   4.562  1.00  0.00     0.164 C 
ATOM     25  C   UNL     1     -30.182 -25.591   3.773  1.00  0.00     0.045 C 
BRANCH  24  26
ATOM     26  O   UNL     1     -29.993 -24.360   5.807  1.00  0.00    -0.375 OA
ATOM     27  C   UNL     1     -30.259 -25.534   6.558  1.00  0.00     0.195 C 
ENDBRANCH  24  26
ENDBRANCH  19  24
BRANCH  22  28
ATOM     28  N   UNL     1     -29.334 -19.756   1.662  1.00  0.00    -0.368 N 
ATOM     29  C   UNL     1     -28.146 -19.165   1.027  1.00  0.00     0.132 C 
ATOM     30  C   UNL     1     -30.620 -19.119   1.359  1.00  0.00     0.132 C 
ATOM     31  C   UNL     1     -28.204 -17.655   0.952  1.00  0.00     0.105 C 
ATOM     32  C   UNL     1     -30.535 -17.613   1.293  1.00  0.00     0.105 C 
ATOM     33  N   UNL     1     -29.472 -17.207   0.381  1.00  0.00    -0.303 NA
ATOM     34  C   UNL     1     -29.483 -15.755   0.199  1.00  0.00     0.105 C 
ENDBRANCH  22  28
ENDBRANCH  10  18
BRANCH  13  35
ATOM     35  C   UNL     1     -25.791 -24.273   2.328  1.00  0.00     0.048 C 
BRANCH  35  36
ATOM     36  C   UNL     1     -26.073 -25.781   2.247  1.00  0.00     0.003 CG0
ATOM     37  C   UNL     1     -27.389 -25.945   1.487  1.00  0.00     0.015 C 
ATOM     38  C   UNL     1     -26.236 -26.387   3.645  1.00  0.00     0.015 C 
ATOM     39  G   UNL     1     -24.955 -26.512   1.511  1.00  0.00     0.000 G0
ENDBRANCH  35  36
ENDBRANCH  13  35
ENDBRANCH   3   7
ENDBRANCH   1   2
BRANCH   1  40
ATOM     40  C   UNL     1     -18.279 -26.322   2.845  1.00  0.00     0.179 C 
BRANCH  40  41
ATOM     41  C   UNL     1     -18.130 -25.710   1.463  1.00  0.00     0.259 C 
ATOM     42  O   UNL     1     -17.071 -25.738   0.849  1.00  0.00    -0.271 OA
BRANCH  41  43
ATOM     43  N   UNL     1     -19.214 -25.057   0.936  1.00  0.00    -0.275 N 
ATOM     44  C   UNL     1     -19.301 -23.597   0.777  1.00  0.00     0.140 C 
ATOM     45  N   UNL     1     -20.349 -25.804   0.544  1.00  0.00    -0.218 NA
ATOM     46  C   UNL     1     -20.422 -23.118   1.678  1.00  0.00     0.025 C 
ATOM     47  C   UNL     1     -21.509 -25.385   1.347  1.00  0.00     0.184 C 
ATOM     48  C   UNL     1     -21.702 -23.860   1.307  1.00  0.00     0.035 C 
ATOM     49  H   UNL     1     -20.543 -25.638  -0.454  1.00  0.00     0.149 HD
BRANCH  47  50
ATOM     50  C   UNL     1     -22.740 -26.081   0.824  1.00  0.00     0.324 C 
ATOM     51  O   UNL     1     -22.725 -26.981   0.018  1.00  0.00    -0.250 OA
BRANCH  50  52
ATOM     52  O   UNL     1     -23.858 -25.572   1.354  1.00  0.00    -0.464 OA
BRANCH  52  53
ATOM     53  C   UNL     1     -24.948 -26.526   1.518  1.00  0.00     0.239 CG0
ATOM     54  G   UNL     1     -26.059 -25.767   2.237  1.00  0.00     0.000 G0
ENDBRANCH  52  53
ENDBRANCH  50  52
ENDBRANCH  47  50
ENDBRANCH  41  43
ENDBRANCH  40  41
BRANCH  40  55
ATOM     55  N   UNL     1     -17.298 -27.362   3.105  1.00  0.00    -0.344 N 
ATOM     56  C   UNL     1     -17.653 -28.652   3.219  1.00  0.00     0.224 C 
ATOM     57  O   UNL     1     -18.817 -29.006   3.382  1.00  0.00    -0.275 OA
ATOM     58  H   UNL     1     -16.307 -27.103   3.204  1.00  0.00     0.164 HD
BRANCH  56  59
ATOM     59  C   UNL     1     -16.572 -29.642   3.045  1.00  0.00     0.081 C 
ATOM     60  C   UNL     1     -16.801 -31.009   3.626  1.00  0.00     0.018 C 
ATOM     61  C   UNL     1     -16.840 -30.846   2.152  1.00  0.00    -0.001 C 
ATOM     62  C   UNL     1     -15.749 -31.425   1.277  1.00  0.00     0.008 C 
ENDBRANCH  56  59
ENDBRANCH  40  55
ENDBRANCH   1  40
TORSDOF 7
ENDMDL
MODEL 20
REMARK VINA RESULT:    -4.453      5.517     11.244
REMARK INTER + INTRA:         -13.302
REMARK INTER:                  -9.901
REMARK INTRA:                  -3.401
REMARK UNBOUND:                -4.423
REMARK SMILES CCn1c(-c2cc(N3CCN(C)CC3)cnc2[C@H](C)OC)c2c3cc(ccc31)-c1csc(n1)C[C@H](NC(=O)[C@H]1C[C@@H]1C)C(=O)N1CCC[C@H](N1)C(=O)OCC(C)(C)C2
REMARK SMILES IDX 34 1 32 2 29 3 30 4 33 5 31 6 25 7 3 8 28 9 4 10 23 11 27 12
REMARK SMILES IDX 22 13 24 14 26 15 2 16 1 17 5 18 17 19 6 20 16 21 7 22 15 23
REMARK SMILES IDX 18 24 19 25 20 26 21 27 8 28 14 29 9 30 13 31 10 32 11 33
REMARK SMILES IDX 12 34 58 35 55 36 56 37 57 38 35 40 43 41 44 42 45 43 46 44
REMARK SMILES IDX 50 45 47 46 49 47 48 48 51 50 52 51 53 52 54 53 36 55 37 56
REMARK SMILES IDX 38 57 39 59 40 60 41 61 42 62
REMARK H PARENT 50 49 36 58
REMARK Flexibility Score:  160.900
ROOT
ATOM      1  C   UNL     1     -15.765 -16.229   0.501  1.00  0.00     0.102 C 
ENDROOT
BRANCH   1   2
ATOM      2  C   UNL     1     -16.659 -15.684   1.571  1.00  0.00     0.096 A 
ATOM      3  C   UNL     1     -18.469 -15.417   2.812  1.00  0.00     0.081 A 
ATOM      4  C   UNL     1     -17.682 -14.499   3.421  1.00  0.00     0.095 A 
ATOM      5  N   UNL     1     -17.904 -16.039   1.703  1.00  0.00    -0.241 NA
ATOM      6  S   UNL     1     -16.107 -14.555   2.759  1.00  0.00    -0.127 S 
BRANCH   3   7
ATOM      7  C   UNL     1     -19.835 -15.831   3.183  1.00  0.00     0.002 A 
ATOM      8  N   UNL     1     -23.573 -17.149   4.319  1.00  0.00    -0.340 N 
ATOM      9  C   UNL     1     -22.397 -16.544   3.917  1.00  0.00     0.049 A 
ATOM     10  C   UNL     1     -23.366 -18.514   4.411  1.00  0.00     0.054 A 
ATOM     11  C   UNL     1     -21.418 -17.545   3.773  1.00  0.00     0.004 A 
ATOM     12  C   UNL     1     -22.118 -15.196   3.721  1.00  0.00     0.027 A 
ATOM     13  C   UNL     1     -22.041 -18.793   4.081  1.00  0.00    -0.014 A 
ATOM     14  C   UNL     1     -20.120 -17.174   3.403  1.00  0.00     0.021 A 
ATOM     15  C   UNL     1     -20.833 -14.871   3.347  1.00  0.00     0.012 A 
BRANCH   8  16
ATOM     16  C   UNL     1     -24.818 -16.412   4.518  1.00  0.00     0.119 C 
ATOM     17  C   UNL     1     -24.601 -15.288   5.490  1.00  0.00     0.027 C 
ENDBRANCH   8  16
BRANCH  10  18
ATOM     18  C   UNL     1     -24.419 -19.484   4.727  1.00  0.00     0.025 A 
ATOM     19  C   UNL     1     -24.535 -20.109   5.990  1.00  0.00     0.078 A 
ATOM     20  C   UNL     1     -25.334 -19.811   3.730  1.00  0.00     0.039 A 
ATOM     21  N   UNL     1     -25.505 -21.000   6.232  1.00  0.00    -0.256 NA
ATOM     22  C   UNL     1     -26.322 -20.747   3.992  1.00  0.00     0.056 A 
ATOM     23  C   UNL     1     -26.381 -21.308   5.259  1.00  0.00     0.137 A 
BRANCH  19  24
ATOM     24  C   UNL     1     -23.584 -19.834   7.143  1.00  0.00     0.164 C 
ATOM     25  C   UNL     1     -22.894 -21.120   7.542  1.00  0.00     0.045 C 
BRANCH  24  26
ATOM     26  O   UNL     1     -24.362 -19.378   8.250  1.00  0.00    -0.375 OA
ATOM     27  C   UNL     1     -25.070 -18.175   7.992  1.00  0.00     0.195 C 
ENDBRANCH  24  26
ENDBRANCH  19  24
BRANCH  22  28
ATOM     28  N   UNL     1     -27.259 -21.075   3.028  1.00  0.00    -0.368 N 
ATOM     29  C   UNL     1     -27.167 -22.315   2.241  1.00  0.00     0.132 C 
ATOM     30  C   UNL     1     -28.488 -20.290   2.868  1.00  0.00     0.132 C 
ATOM     31  C   UNL     1     -27.764 -22.183   0.857  1.00  0.00     0.105 C 
ATOM     32  C   UNL     1     -28.987 -20.256   1.443  1.00  0.00     0.105 C 
ATOM     33  N   UNL     1     -29.107 -21.612   0.918  1.00  0.00    -0.303 NA
ATOM     34  C   UNL     1     -29.731 -21.593  -0.406  1.00  0.00     0.105 C 
ENDBRANCH  22  28
ENDBRANCH  10  18
BRANCH  13  35
ATOM     35  C   UNL     1     -21.388 -20.146   4.021  1.00  0.00     0.048 C 
BRANCH  35  36
ATOM     36  C   UNL     1     -21.552 -20.893   2.689  1.00  0.00     0.003 CG0
ATOM     37  C   UNL     1     -21.989 -19.858   1.651  1.00  0.00     0.015 C 
ATOM     38  C   UNL     1     -22.636 -21.971   2.790  1.00  0.00     0.015 C 
ATOM     39  G   UNL     1     -20.240 -21.541   2.254  1.00  0.00     0.000 G0
ENDBRANCH  35  36
ENDBRANCH  13  35
ENDBRANCH   3   7
ENDBRANCH   1   2
BRANCH   1  40
ATOM     40  C   UNL     1     -15.762 -17.765   0.514  1.00  0.00     0.179 C 
BRANCH  40  41
ATOM     41  C   UNL     1     -15.519 -18.276  -0.897  1.00  0.00     0.259 C 
ATOM     42  O   UNL     1     -14.878 -17.635  -1.720  1.00  0.00    -0.271 OA
BRANCH  41  43
ATOM     43  N   UNL     1     -16.099 -19.467  -1.250  1.00  0.00    -0.275 N 
ATOM     44  C   UNL     1     -16.154 -19.981  -2.628  1.00  0.00     0.140 C 
ATOM     45  N   UNL     1     -16.720 -20.257  -0.256  1.00  0.00    -0.218 NA
ATOM     46  C   UNL     1     -17.617 -20.036  -3.023  1.00  0.00     0.025 C 
ATOM     47  C   UNL     1     -18.152 -20.397  -0.571  1.00  0.00     0.184 C 
ATOM     48  C   UNL     1     -18.368 -20.894  -2.009  1.00  0.00     0.035 C 
ATOM     49  H   UNL     1     -16.281 -21.188  -0.231  1.00  0.00     0.149 HD
BRANCH  47  50
ATOM     50  C   UNL     1     -18.774 -21.357   0.412  1.00  0.00     0.324 C 
ATOM     51  O   UNL     1     -18.439 -22.510   0.545  1.00  0.00    -0.250 OA
BRANCH  50  52
ATOM     52  O   UNL     1     -19.755 -20.778   1.114  1.00  0.00    -0.464 OA
BRANCH  52  53
ATOM     53  C   UNL     1     -20.238 -21.556   2.247  1.00  0.00     0.239 CG0
ATOM     54  G   UNL     1     -21.540 -20.890   2.684  1.00  0.00     0.000 G0
ENDBRANCH  52  53
ENDBRANCH  50  52
ENDBRANCH  47  50
ENDBRANCH  41  43
ENDBRANCH  40  41
BRANCH  40  55
ATOM     55  N   UNL     1     -14.813 -18.301   1.474  1.00  0.00    -0.344 N 
ATOM     56  C   UNL     1     -15.213 -19.040   2.521  1.00  0.00     0.224 C 
ATOM     57  O   UNL     1     -16.383 -19.087   2.890  1.00  0.00    -0.275 OA
ATOM     58  H   UNL     1     -13.809 -18.110   1.349  1.00  0.00     0.164 HD
BRANCH  56  59
ATOM     59  C   UNL     1     -14.179 -19.877   3.161  1.00  0.00     0.081 C 
ATOM     60  C   UNL     1     -12.745 -19.503   2.904  1.00  0.00     0.018 C 
ATOM     61  C   UNL     1     -13.319 -19.248   4.249  1.00  0.00    -0.001 C 
ATOM     62  C   UNL     1     -12.870 -20.052   5.450  1.00  0.00     0.008 C 
ENDBRANCH  56  59
ENDBRANCH  40  55
ENDBRANCH   1  40
TORSDOF 7
ENDMDL
