MODEL 1
REMARK VINA RESULT:   -10.032      0.000      0.000
REMARK INTER + INTRA:         -23.225
REMARK INTER:                 -20.002
REMARK INTRA:                  -3.224
REMARK UNBOUND:                -3.224
REMARK SMILES CCn1c(-c2cc(N3CCN(C)CC3)cnc2[C@H](C)OC)c2c3cc(ccc31)-c1csc(n1)C[C@H](NC(=O)[C@H]1C[C@@H]1C)C(=O)N1CCC[C@H](N1)C(=O)OCC(C)(C)C2
REMARK SMILES IDX 34 1 32 2 29 3 30 4 33 5 31 6 25 7 3 8 28 9 4 10 23 11 27 12
REMARK SMILES IDX 22 13 24 14 26 15 2 16 1 17 5 18 17 19 6 20 16 21 7 22 15 23
REMARK SMILES IDX 18 24 19 25 20 26 21 27 8 28 14 29 9 30 13 31 10 32 11 33
REMARK SMILES IDX 12 34 58 35 55 36 56 37 57 38 35 40 43 41 44 42 45 43 46 44
REMARK SMILES IDX 50 45 47 46 49 47 48 48 51 50 52 51 53 52 54 53 36 55 37 56
REMARK SMILES IDX 38 57 39 59 40 60 41 61 42 62
REMARK H PARENT 50 49 36 58
REMARK Flexibility Score:  160.900
ROOT
ATOM      1  C   UNL     1      26.918 -26.080  -8.676  1.00  0.00     0.102 C 
ENDROOT
BRANCH   1   2
ATOM      2  C   UNL     1      26.474 -24.882  -9.456  1.00  0.00     0.096 A 
ATOM      3  C   UNL     1      26.358 -23.426 -11.116  1.00  0.00     0.081 A 
ATOM      4  C   UNL     1      25.438 -22.859 -10.300  1.00  0.00     0.095 A 
ATOM      5  N   UNL     1      27.004 -24.542 -10.595  1.00  0.00    -0.241 NA
ATOM      6  S   UNL     1      25.184 -23.855  -8.934  1.00  0.00    -0.127 S 
BRANCH   3   7
ATOM      7  C   UNL     1      26.747 -23.004 -12.475  1.00  0.00     0.002 A 
ATOM      8  N   UNL     1      27.773 -22.012 -16.342  1.00  0.00    -0.340 N 
ATOM      9  C   UNL     1      27.422 -22.166 -15.016  1.00  0.00     0.049 A 
ATOM     10  C   UNL     1      28.082 -23.253 -16.872  1.00  0.00     0.054 A 
ATOM     11  C   UNL     1      27.488 -23.536 -14.702  1.00  0.00     0.004 A 
ATOM     12  C   UNL     1      27.009 -21.210 -14.093  1.00  0.00     0.027 A 
ATOM     13  C   UNL     1      27.913 -24.220 -15.882  1.00  0.00    -0.014 A 
ATOM     14  C   UNL     1      27.141 -23.954 -13.412  1.00  0.00     0.021 A 
ATOM     15  C   UNL     1      26.686 -21.657 -12.830  1.00  0.00     0.012 A 
BRANCH   8  16
ATOM     16  C   UNL     1      27.861 -20.708 -16.996  1.00  0.00     0.119 C 
ATOM     17  C   UNL     1      26.485 -20.145 -17.208  1.00  0.00     0.027 C 
ENDBRANCH   8  16
BRANCH  10  18
ATOM     18  C   UNL     1      28.580 -23.463 -18.234  1.00  0.00     0.025 A 
ATOM     19  C   UNL     1      27.729 -23.549 -19.360  1.00  0.00     0.078 A 
ATOM     20  C   UNL     1      29.954 -23.597 -18.420  1.00  0.00     0.039 A 
ATOM     21  N   UNL     1      28.227 -23.755 -20.586  1.00  0.00    -0.256 NA
ATOM     22  C   UNL     1      30.450 -23.826 -19.693  1.00  0.00     0.056 A 
ATOM     23  C   UNL     1      29.555 -23.886 -20.750  1.00  0.00     0.137 A 
BRANCH  19  24
ATOM     24  C   UNL     1      26.217 -23.428 -19.269  1.00  0.00     0.164 C 
ATOM     25  C   UNL     1      25.577 -24.653 -19.886  1.00  0.00     0.045 C 
BRANCH  24  26
ATOM     26  O   UNL     1      25.824 -22.285 -20.029  1.00  0.00    -0.375 OA
ATOM     27  C   UNL     1      24.541 -21.785 -19.684  1.00  0.00     0.195 C 
ENDBRANCH  24  26
ENDBRANCH  19  24
BRANCH  22  28
ATOM     28  N   UNL     1      31.812 -23.942 -19.911  1.00  0.00    -0.368 N 
ATOM     29  C   UNL     1      32.456 -23.415 -21.124  1.00  0.00     0.132 C 
ATOM     30  C   UNL     1      32.707 -24.437 -18.859  1.00  0.00     0.132 C 
ATOM     31  C   UNL     1      33.683 -24.200 -21.531  1.00  0.00     0.105 C 
ATOM     32  C   UNL     1      33.901 -25.185 -19.402  1.00  0.00     0.105 C 
ATOM     33  N   UNL     1      34.591 -24.378 -20.401  1.00  0.00    -0.303 NA
ATOM     34  C   UNL     1      35.831 -25.034 -20.820  1.00  0.00     0.105 C 
ENDBRANCH  22  28
ENDBRANCH  10  18
BRANCH  13  35
ATOM     35  C   UNL     1      28.163 -25.697 -16.008  1.00  0.00     0.048 C 
BRANCH  35  36
ATOM     36  C   UNL     1      26.920 -26.549 -16.303  1.00  0.00     0.003 CG0
ATOM     37  C   UNL     1      27.094 -27.110 -17.716  1.00  0.00     0.015 C 
ATOM     38  C   UNL     1      25.647 -25.699 -16.268  1.00  0.00     0.015 C 
ATOM     39  G   UNL     1      26.786 -27.695 -15.304  1.00  0.00     0.000 G0
ENDBRANCH  35  36
ENDBRANCH  13  35
ENDBRANCH   3   7
ENDBRANCH   1   2
BRANCH   1  40
ATOM     40  C   UNL     1      25.749 -27.049  -8.439  1.00  0.00     0.179 C 
BRANCH  40  41
ATOM     41  C   UNL     1      26.256 -28.477  -8.540  1.00  0.00     0.259 C 
ATOM     42  O   UNL     1      26.724 -29.071  -7.575  1.00  0.00    -0.271 OA
BRANCH  41  43
ATOM     43  N   UNL     1      26.235 -29.075  -9.773  1.00  0.00    -0.275 N 
ATOM     44  C   UNL     1      26.836 -30.386 -10.065  1.00  0.00     0.140 C 
ATOM     45  N   UNL     1      25.633 -28.399 -10.860  1.00  0.00    -0.218 NA
ATOM     46  C   UNL     1      27.960 -30.148 -11.054  1.00  0.00     0.025 C 
ATOM     47  C   UNL     1      26.647 -28.149 -11.897  1.00  0.00     0.184 C 
ATOM     48  C   UNL     1      27.394 -29.437 -12.280  1.00  0.00     0.035 C 
ATOM     49  H   UNL     1      24.877 -28.979 -11.250  1.00  0.00     0.149 HD
BRANCH  47  50
ATOM     50  C   UNL     1      25.969 -27.559 -13.108  1.00  0.00     0.324 C 
ATOM     51  O   UNL     1      24.772 -27.531 -13.274  1.00  0.00    -0.250 OA
BRANCH  50  52
ATOM     52  O   UNL     1      26.856 -27.079 -13.987  1.00  0.00    -0.464 OA
BRANCH  52  53
ATOM     53  C   UNL     1      26.791 -27.680 -15.313  1.00  0.00     0.239 CG0
ATOM     54  G   UNL     1      26.928 -26.525 -16.299  1.00  0.00     0.000 G0
ENDBRANCH  52  53
ENDBRANCH  50  52
ENDBRANCH  47  50
ENDBRANCH  41  43
ENDBRANCH  40  41
BRANCH  40  55
ATOM     55  N   UNL     1      25.066 -26.784  -7.185  1.00  0.00    -0.344 N 
ATOM     56  C   UNL     1      23.803 -27.187  -6.973  1.00  0.00     0.224 C 
ATOM     57  O   UNL     1      23.063 -27.552  -7.882  1.00  0.00    -0.275 OA
ATOM     58  H   UNL     1      25.562 -26.274  -6.441  1.00  0.00     0.164 HD
BRANCH  56  59
ATOM     59  C   UNL     1      23.371 -27.260  -5.563  1.00  0.00     0.081 C 
ATOM     60  C   UNL     1      22.051 -27.923  -5.288  1.00  0.00     0.018 C 
ATOM     61  C   UNL     1      23.298 -28.630  -4.905  1.00  0.00    -0.001 C 
ATOM     62  C   UNL     1      23.669 -28.818  -3.449  1.00  0.00     0.008 C 
ENDBRANCH  56  59
ENDBRANCH  40  55
ENDBRANCH   1  40
TORSDOF 7
ENDMDL
MODEL 2
REMARK VINA RESULT:    -9.229      1.607      2.879
REMARK INTER + INTRA:         -21.624
REMARK INTER:                 -17.909
REMARK INTRA:                  -3.716
REMARK UNBOUND:                -3.224
REMARK SMILES CCn1c(-c2cc(N3CCN(C)CC3)cnc2[C@H](C)OC)c2c3cc(ccc31)-c1csc(n1)C[C@H](NC(=O)[C@H]1C[C@@H]1C)C(=O)N1CCC[C@H](N1)C(=O)OCC(C)(C)C2
REMARK SMILES IDX 34 1 32 2 29 3 30 4 33 5 31 6 25 7 3 8 28 9 4 10 23 11 27 12
REMARK SMILES IDX 22 13 24 14 26 15 2 16 1 17 5 18 17 19 6 20 16 21 7 22 15 23
REMARK SMILES IDX 18 24 19 25 20 26 21 27 8 28 14 29 9 30 13 31 10 32 11 33
REMARK SMILES IDX 12 34 58 35 55 36 56 37 57 38 35 40 43 41 44 42 45 43 46 44
REMARK SMILES IDX 50 45 47 46 49 47 48 48 51 50 52 51 53 52 54 53 36 55 37 56
REMARK SMILES IDX 38 57 39 59 40 60 41 61 42 62
REMARK H PARENT 50 49 36 58
REMARK Flexibility Score:  160.900
ROOT
ATOM      1  C   UNL     1      25.180 -26.208  -9.268  1.00  0.00     0.102 C 
ENDROOT
BRANCH   1   2
ATOM      2  C   UNL     1      25.503 -24.846  -9.799  1.00  0.00     0.096 A 
ATOM      3  C   UNL     1      26.175 -23.289 -11.218  1.00  0.00     0.081 A 
ATOM      4  C   UNL     1      25.858 -22.479 -10.180  1.00  0.00     0.095 A 
ATOM      5  N   UNL     1      26.042 -24.651 -10.968  1.00  0.00    -0.241 NA
ATOM      6  S   UNL     1      25.153 -23.397  -8.922  1.00  0.00    -0.127 S 
BRANCH   3   7
ATOM      7  C   UNL     1      26.635 -22.901 -12.565  1.00  0.00     0.002 A 
ATOM      8  N   UNL     1      27.875 -22.005 -16.393  1.00  0.00    -0.340 N 
ATOM      9  C   UNL     1      27.442 -22.126 -15.087  1.00  0.00     0.049 A 
ATOM     10  C   UNL     1      28.278 -23.249 -16.848  1.00  0.00     0.054 A 
ATOM     11  C   UNL     1      27.551 -23.479 -14.713  1.00  0.00     0.004 A 
ATOM     12  C   UNL     1      26.921 -21.158 -14.234  1.00  0.00     0.027 A 
ATOM     13  C   UNL     1      28.089 -24.185 -15.833  1.00  0.00    -0.014 A 
ATOM     14  C   UNL     1      27.138 -23.864 -13.433  1.00  0.00     0.021 A 
ATOM     15  C   UNL     1      26.535 -21.573 -12.978  1.00  0.00     0.012 A 
BRANCH   8  16
ATOM     16  C   UNL     1      27.945 -20.725 -17.092  1.00  0.00     0.119 C 
ATOM     17  C   UNL     1      26.586 -20.344 -17.605  1.00  0.00     0.027 C 
ENDBRANCH   8  16
BRANCH  10  18
ATOM     18  C   UNL     1      28.878 -23.485 -18.165  1.00  0.00     0.025 A 
ATOM     19  C   UNL     1      28.117 -23.572 -19.353  1.00  0.00     0.078 A 
ATOM     20  C   UNL     1      30.260 -23.645 -18.240  1.00  0.00     0.039 A 
ATOM     21  N   UNL     1      28.706 -23.803 -20.534  1.00  0.00    -0.256 NA
ATOM     22  C   UNL     1      30.850 -23.899 -19.467  1.00  0.00     0.056 A 
ATOM     23  C   UNL     1      30.040 -23.958 -20.591  1.00  0.00     0.137 A 
BRANCH  19  24
ATOM     24  C   UNL     1      26.605 -23.425 -19.382  1.00  0.00     0.164 C 
ATOM     25  C   UNL     1      25.993 -24.657 -20.013  1.00  0.00     0.045 C 
BRANCH  24  26
ATOM     26  O   UNL     1      26.292 -22.298 -20.201  1.00  0.00    -0.375 OA
ATOM     27  C   UNL     1      25.159 -22.494 -21.032  1.00  0.00     0.195 C 
ENDBRANCH  24  26
ENDBRANCH  19  24
BRANCH  22  28
ATOM     28  N   UNL     1      32.223 -24.040 -19.576  1.00  0.00    -0.368 N 
ATOM     29  C   UNL     1      33.046 -24.538 -18.463  1.00  0.00     0.132 C 
ATOM     30  C   UNL     1      32.902 -23.870 -20.865  1.00  0.00     0.132 C 
ATOM     31  C   UNL     1      34.452 -23.977 -18.471  1.00  0.00     0.105 C 
ATOM     32  C   UNL     1      34.303 -23.323 -20.729  1.00  0.00     0.105 C 
ATOM     33  N   UNL     1      35.070 -24.128 -19.785  1.00  0.00    -0.303 NA
ATOM     34  C   UNL     1      36.468 -23.695 -19.763  1.00  0.00     0.105 C 
ENDBRANCH  22  28
ENDBRANCH  10  18
BRANCH  13  35
ATOM     35  C   UNL     1      28.418 -25.650 -15.880  1.00  0.00     0.048 C 
BRANCH  35  36
ATOM     36  C   UNL     1      27.296 -26.557 -16.407  1.00  0.00     0.003 CG0
ATOM     37  C   UNL     1      27.697 -26.981 -17.821  1.00  0.00     0.015 C 
ATOM     38  C   UNL     1      25.966 -25.802 -16.484  1.00  0.00     0.015 C 
ATOM     39  G   UNL     1      27.122 -27.790 -15.526  1.00  0.00     0.000 G0
ENDBRANCH  35  36
ENDBRANCH  13  35
ENDBRANCH   3   7
ENDBRANCH   1   2
BRANCH   1  40
ATOM     40  C   UNL     1      26.431 -26.886  -8.688  1.00  0.00     0.179 C 
BRANCH  40  41
ATOM     41  C   UNL     1      26.232 -28.392  -8.696  1.00  0.00     0.259 C 
ATOM     42  O   UNL     1      26.046 -29.029  -7.666  1.00  0.00    -0.271 OA
BRANCH  41  43
ATOM     43  N   UNL     1      26.331 -29.041  -9.899  1.00  0.00    -0.275 N 
ATOM     44  C   UNL     1      26.966 -30.357 -10.078  1.00  0.00     0.140 C 
ATOM     45  N   UNL     1      25.831 -28.417 -11.065  1.00  0.00    -0.218 NA
ATOM     46  C   UNL     1      28.176 -30.148 -10.966  1.00  0.00     0.025 C 
ATOM     47  C   UNL     1      26.936 -28.200 -12.013  1.00  0.00     0.184 C 
ATOM     48  C   UNL     1      27.724 -29.495 -12.268  1.00  0.00     0.035 C 
ATOM     49  H   UNL     1      25.118 -29.020 -11.500  1.00  0.00     0.149 HD
BRANCH  47  50
ATOM     50  C   UNL     1      26.371 -27.669 -13.306  1.00  0.00     0.324 C 
ATOM     51  O   UNL     1      25.191 -27.571 -13.546  1.00  0.00    -0.250 OA
BRANCH  50  52
ATOM     52  O   UNL     1      27.339 -27.328 -14.165  1.00  0.00    -0.464 OA
BRANCH  52  53
ATOM     53  C   UNL     1      27.129 -27.778 -15.534  1.00  0.00     0.239 CG0
ATOM     54  G   UNL     1      27.304 -26.541 -16.410  1.00  0.00     0.000 G0
ENDBRANCH  52  53
ENDBRANCH  50  52
ENDBRANCH  47  50
ENDBRANCH  41  43
ENDBRANCH  40  41
BRANCH  40  55
ATOM     55  N   UNL     1      27.643 -26.477  -9.377  1.00  0.00    -0.344 N 
ATOM     56  C   UNL     1      28.755 -26.140  -8.706  1.00  0.00     0.224 C 
ATOM     57  O   UNL     1      28.753 -25.893  -7.503  1.00  0.00    -0.275 OA
ATOM     58  H   UNL     1      27.649 -26.446 -10.407  1.00  0.00     0.164 HD
BRANCH  56  59
ATOM     59  C   UNL     1      30.015 -26.170  -9.475  1.00  0.00     0.081 C 
ATOM     60  C   UNL     1      30.391 -24.917 -10.215  1.00  0.00     0.018 C 
ATOM     61  C   UNL     1      31.164 -25.290  -9.004  1.00  0.00    -0.001 C 
ATOM     62  C   UNL     1      32.600 -25.757  -9.112  1.00  0.00     0.008 C 
ENDBRANCH  56  59
ENDBRANCH  40  55
ENDBRANCH   1  40
TORSDOF 7
ENDMDL
MODEL 3
REMARK VINA RESULT:    -7.747      2.628      3.561
REMARK INTER + INTRA:         -18.670
REMARK INTER:                 -16.601
REMARK INTRA:                  -2.070
REMARK UNBOUND:                -3.224
REMARK SMILES CCn1c(-c2cc(N3CCN(C)CC3)cnc2[C@H](C)OC)c2c3cc(ccc31)-c1csc(n1)C[C@H](NC(=O)[C@H]1C[C@@H]1C)C(=O)N1CCC[C@H](N1)C(=O)OCC(C)(C)C2
REMARK SMILES IDX 34 1 32 2 29 3 30 4 33 5 31 6 25 7 3 8 28 9 4 10 23 11 27 12
REMARK SMILES IDX 22 13 24 14 26 15 2 16 1 17 5 18 17 19 6 20 16 21 7 22 15 23
REMARK SMILES IDX 18 24 19 25 20 26 21 27 8 28 14 29 9 30 13 31 10 32 11 33
REMARK SMILES IDX 12 34 58 35 55 36 56 37 57 38 35 40 43 41 44 42 45 43 46 44
REMARK SMILES IDX 50 45 47 46 49 47 48 48 51 50 52 51 53 52 54 53 36 55 37 56
REMARK SMILES IDX 38 57 39 59 40 60 41 61 42 62
REMARK H PARENT 50 49 36 58
REMARK Flexibility Score:  160.900
ROOT
ATOM      1  C   UNL     1      26.754 -26.735  -9.705  1.00  0.00     0.102 C 
ENDROOT
BRANCH   1   2
ATOM      2  C   UNL     1      26.489 -25.320 -10.117  1.00  0.00     0.096 A 
ATOM      3  C   UNL     1      26.420 -23.522 -11.401  1.00  0.00     0.081 A 
ATOM      4  C   UNL     1      25.869 -22.983 -10.288  1.00  0.00     0.095 A 
ATOM      5  N   UNL     1      26.844 -24.841 -11.273  1.00  0.00    -0.241 NA
ATOM      6  S   UNL     1      25.649 -24.197  -9.105  1.00  0.00    -0.127 S 
BRANCH   3   7
ATOM      7  C   UNL     1      26.618 -22.883 -12.716  1.00  0.00     0.002 A 
ATOM      8  N   UNL     1      27.042 -21.236 -16.471  1.00  0.00    -0.340 N 
ATOM      9  C   UNL     1      26.957 -21.628 -15.150  1.00  0.00     0.049 A 
ATOM     10  C   UNL     1      26.820 -22.337 -17.281  1.00  0.00     0.054 A 
ATOM     11  C   UNL     1      26.652 -23.001 -15.120  1.00  0.00     0.004 A 
ATOM     12  C   UNL     1      27.077 -20.867 -13.992  1.00  0.00     0.027 A 
ATOM     13  C   UNL     1      26.573 -23.447 -16.475  1.00  0.00    -0.014 A 
ATOM     14  C   UNL     1      26.480 -23.630 -13.881  1.00  0.00     0.021 A 
ATOM     15  C   UNL     1      26.911 -21.522 -12.791  1.00  0.00     0.012 A 
BRANCH   8  16
ATOM     16  C   UNL     1      27.394 -19.878 -16.878  1.00  0.00     0.119 C 
ATOM     17  C   UNL     1      28.887 -19.737 -16.962  1.00  0.00     0.027 C 
ENDBRANCH   8  16
BRANCH  10  18
ATOM     18  C   UNL     1      26.919 -22.314 -18.743  1.00  0.00     0.025 A 
ATOM     19  C   UNL     1      25.922 -21.750 -19.572  1.00  0.00     0.078 A 
ATOM     20  C   UNL     1      28.041 -22.887 -19.336  1.00  0.00     0.039 A 
ATOM     21  N   UNL     1      26.048 -21.762 -20.906  1.00  0.00    -0.256 NA
ATOM     22  C   UNL     1      28.146 -22.905 -20.718  1.00  0.00     0.056 A 
ATOM     23  C   UNL     1      27.135 -22.322 -21.466  1.00  0.00     0.137 A 
BRANCH  19  24
ATOM     24  C   UNL     1      24.655 -21.111 -19.030  1.00  0.00     0.164 C 
ATOM     25  C   UNL     1      23.455 -21.914 -19.481  1.00  0.00     0.045 C 
BRANCH  24  26
ATOM     26  O   UNL     1      24.555 -19.801 -19.589  1.00  0.00    -0.375 OA
ATOM     27  C   UNL     1      25.496 -18.881 -19.057  1.00  0.00     0.195 C 
ENDBRANCH  24  26
ENDBRANCH  19  24
BRANCH  22  28
ATOM     28  N   UNL     1      29.260 -23.449 -21.335  1.00  0.00    -0.368 N 
ATOM     29  C   UNL     1      30.374 -24.025 -20.567  1.00  0.00     0.132 C 
ATOM     30  C   UNL     1      29.302 -23.639 -22.789  1.00  0.00     0.132 C 
ATOM     31  C   UNL     1      31.706 -23.900 -21.273  1.00  0.00     0.105 C 
ATOM     32  C   UNL     1      30.693 -23.507 -23.362  1.00  0.00     0.105 C 
ATOM     33  N   UNL     1      31.618 -24.380 -22.649  1.00  0.00    -0.303 NA
ATOM     34  C   UNL     1      32.932 -24.369 -23.295  1.00  0.00     0.105 C 
ENDBRANCH  22  28
ENDBRANCH  10  18
BRANCH  13  35
ATOM     35  C   UNL     1      26.311 -24.856 -16.929  1.00  0.00     0.048 C 
BRANCH  35  36
ATOM     36  C   UNL     1      27.558 -25.739 -17.080  1.00  0.00     0.003 CG0
ATOM     37  C   UNL     1      28.708 -25.003 -16.389  1.00  0.00     0.015 C 
ATOM     38  C   UNL     1      27.920 -25.936 -18.555  1.00  0.00     0.015 C 
ATOM     39  G   UNL     1      27.351 -27.103 -16.428  1.00  0.00     0.000 G0
ENDBRANCH  35  36
ENDBRANCH  13  35
ENDBRANCH   3   7
ENDBRANCH   1   2
BRANCH   1  40
ATOM     40  C   UNL     1      28.261 -26.998  -9.569  1.00  0.00     0.179 C 
BRANCH  40  41
ATOM     41  C   UNL     1      28.857 -27.218 -10.949  1.00  0.00     0.259 C 
ATOM     42  O   UNL     1      29.890 -26.666 -11.308  1.00  0.00    -0.271 OA
BRANCH  41  43
ATOM     43  N   UNL     1      28.164 -28.016 -11.822  1.00  0.00    -0.275 N 
ATOM     44  C   UNL     1      27.360 -29.180 -11.415  1.00  0.00     0.140 C 
ATOM     45  N   UNL     1      28.232 -27.749 -13.209  1.00  0.00    -0.218 NA
ATOM     46  C   UNL     1      28.014 -30.405 -12.023  1.00  0.00     0.025 C 
ATOM     47  C   UNL     1      28.830 -28.905 -13.897  1.00  0.00     0.184 C 
ATOM     48  C   UNL     1      28.110 -30.214 -13.533  1.00  0.00     0.035 C 
ATOM     49  H   UNL     1      27.284 -27.583 -13.575  1.00  0.00     0.149 HD
BRANCH  47  50
ATOM     50  C   UNL     1      28.767 -28.671 -15.386  1.00  0.00     0.324 C 
ATOM     51  O   UNL     1      28.900 -29.535 -16.219  1.00  0.00    -0.250 OA
BRANCH  50  52
ATOM     52  O   UNL     1      28.555 -27.381 -15.674  1.00  0.00    -0.464 OA
BRANCH  52  53
ATOM     53  C   UNL     1      27.357 -27.118 -16.459  1.00  0.00     0.239 CG0
ATOM     54  G   UNL     1      27.564 -25.742 -17.085  1.00  0.00     0.000 G0
ENDBRANCH  52  53
ENDBRANCH  50  52
ENDBRANCH  47  50
ENDBRANCH  41  43
ENDBRANCH  40  41
BRANCH  40  55
ATOM     55  N   UNL     1      28.935 -25.945  -8.830  1.00  0.00    -0.344 N 
ATOM     56  C   UNL     1      29.158 -26.044  -7.509  1.00  0.00     0.224 C 
ATOM     57  O   UNL     1      28.589 -26.871  -6.802  1.00  0.00    -0.275 OA
ATOM     58  H   UNL     1      29.249 -25.102  -9.331  1.00  0.00     0.164 HD
BRANCH  56  59
ATOM     59  C   UNL     1      30.203 -25.159  -6.958  1.00  0.00     0.081 C 
ATOM     60  C   UNL     1      30.303 -25.074  -5.460  1.00  0.00     0.018 C 
ATOM     61  C   UNL     1      31.362 -25.799  -6.206  1.00  0.00    -0.001 C 
ATOM     62  C   UNL     1      32.763 -25.237  -6.309  1.00  0.00     0.008 C 
ENDBRANCH  56  59
ENDBRANCH  40  55
ENDBRANCH   1  40
TORSDOF 7
ENDMDL
MODEL 4
REMARK VINA RESULT:    -7.283      2.433     11.150
REMARK INTER + INTRA:         -17.744
REMARK INTER:                 -13.981
REMARK INTRA:                  -3.763
REMARK UNBOUND:                -3.224
REMARK SMILES CCn1c(-c2cc(N3CCN(C)CC3)cnc2[C@H](C)OC)c2c3cc(ccc31)-c1csc(n1)C[C@H](NC(=O)[C@H]1C[C@@H]1C)C(=O)N1CCC[C@H](N1)C(=O)OCC(C)(C)C2
REMARK SMILES IDX 34 1 32 2 29 3 30 4 33 5 31 6 25 7 3 8 28 9 4 10 23 11 27 12
REMARK SMILES IDX 22 13 24 14 26 15 2 16 1 17 5 18 17 19 6 20 16 21 7 22 15 23
REMARK SMILES IDX 18 24 19 25 20 26 21 27 8 28 14 29 9 30 13 31 10 32 11 33
REMARK SMILES IDX 12 34 58 35 55 36 56 37 57 38 35 40 43 41 44 42 45 43 46 44
REMARK SMILES IDX 50 45 47 46 49 47 48 48 51 50 52 51 53 52 54 53 36 55 37 56
REMARK SMILES IDX 38 57 39 59 40 60 41 61 42 62
REMARK H PARENT 50 49 36 58
REMARK Flexibility Score:  160.900
ROOT
ATOM      1  C   UNL     1      29.221 -21.876 -19.139  1.00  0.00     0.102 C 
ENDROOT
BRANCH   1   2
ATOM      2  C   UNL     1      28.044 -21.727 -18.227  1.00  0.00     0.096 A 
ATOM      3  C   UNL     1      26.818 -21.889 -16.394  1.00  0.00     0.081 A 
ATOM      4  C   UNL     1      25.917 -21.242 -17.170  1.00  0.00     0.095 A 
ATOM      5  N   UNL     1      28.007 -22.233 -17.029  1.00  0.00    -0.241 NA
ATOM      6  S   UNL     1      26.631 -20.832 -18.669  1.00  0.00    -0.127 S 
BRANCH   3   7
ATOM      7  C   UNL     1      26.689 -22.264 -14.973  1.00  0.00     0.002 A 
ATOM      8  N   UNL     1      26.492 -23.434 -11.026  1.00  0.00    -0.340 N 
ATOM      9  C   UNL     1      26.462 -22.897 -12.298  1.00  0.00     0.049 A 
ATOM     10  C   UNL     1      27.043 -24.703 -11.087  1.00  0.00     0.054 A 
ATOM     11  C   UNL     1      27.027 -23.835 -13.182  1.00  0.00     0.004 A 
ATOM     12  C   UNL     1      26.027 -21.645 -12.719  1.00  0.00     0.027 A 
ATOM     13  C   UNL     1      27.387 -24.981 -12.409  1.00  0.00    -0.014 A 
ATOM     14  C   UNL     1      27.140 -23.505 -14.537  1.00  0.00     0.021 A 
ATOM     15  C   UNL     1      26.145 -21.360 -14.062  1.00  0.00     0.012 A 
BRANCH   8  16
ATOM     16  C   UNL     1      25.939 -22.750  -9.859  1.00  0.00     0.119 C 
ATOM     17  C   UNL     1      24.455 -22.974  -9.788  1.00  0.00     0.027 C 
ENDBRANCH   8  16
BRANCH  10  18
ATOM     18  C   UNL     1      27.154 -25.606  -9.938  1.00  0.00     0.025 A 
ATOM     19  C   UNL     1      28.393 -26.080  -9.448  1.00  0.00     0.078 A 
ATOM     20  C   UNL     1      25.981 -26.025  -9.315  1.00  0.00     0.039 A 
ATOM     21  N   UNL     1      28.447 -26.915  -8.403  1.00  0.00    -0.256 NA
ATOM     22  C   UNL     1      26.055 -26.903  -8.245  1.00  0.00     0.056 A 
ATOM     23  C   UNL     1      27.306 -27.314  -7.812  1.00  0.00     0.137 A 
BRANCH  19  24
ATOM     24  C   UNL     1      29.729 -25.695 -10.061  1.00  0.00     0.164 C 
ATOM     25  C   UNL     1      30.526 -26.948 -10.353  1.00  0.00     0.045 C 
BRANCH  24  26
ATOM     26  O   UNL     1      30.444 -24.922  -9.097  1.00  0.00    -0.375 OA
ATOM     27  C   UNL     1      31.808 -25.293  -8.967  1.00  0.00     0.195 C 
ENDBRANCH  24  26
ENDBRANCH  19  24
BRANCH  22  28
ATOM     28  N   UNL     1      24.908 -27.319  -7.592  1.00  0.00    -0.368 N 
ATOM     29  C   UNL     1      23.661 -26.538  -7.629  1.00  0.00     0.132 C 
ATOM     30  C   UNL     1      24.826 -28.649  -6.979  1.00  0.00     0.132 C 
ATOM     31  C   UNL     1      22.819 -26.709  -6.384  1.00  0.00     0.105 C 
ATOM     32  C   UNL     1      23.938 -28.685  -5.758  1.00  0.00     0.105 C 
ATOM     33  N   UNL     1      22.629 -28.122  -6.069  1.00  0.00    -0.303 NA
ATOM     34  C   UNL     1      21.718 -28.291  -4.936  1.00  0.00     0.105 C 
ENDBRANCH  22  28
ENDBRANCH  10  18
BRANCH  13  35
ATOM     35  C   UNL     1      27.988 -26.253 -12.940  1.00  0.00     0.048 C 
BRANCH  35  36
ATOM     36  C   UNL     1      26.981 -27.364 -13.274  1.00  0.00     0.003 CG0
ATOM     37  C   UNL     1      25.610 -26.697 -13.396  1.00  0.00     0.015 C 
ATOM     38  C   UNL     1      26.919 -28.407 -12.154  1.00  0.00     0.015 C 
ATOM     39  G   UNL     1      27.339 -28.057 -14.585  1.00  0.00     0.000 G0
ENDBRANCH  35  36
ENDBRANCH  13  35
ENDBRANCH   3   7
ENDBRANCH   1   2
BRANCH   1  40
ATOM     40  C   UNL     1      29.608 -23.354 -19.306  1.00  0.00     0.179 C 
BRANCH  40  41
ATOM     41  C   UNL     1      28.590 -24.040 -20.201  1.00  0.00     0.259 C 
ATOM     42  O   UNL     1      28.498 -23.786 -21.396  1.00  0.00    -0.271 OA
BRANCH  41  43
ATOM     43  N   UNL     1      27.718 -24.920 -19.615  1.00  0.00    -0.275 N 
ATOM     44  C   UNL     1      26.270 -24.944 -19.875  1.00  0.00     0.140 C 
ATOM     45  N   UNL     1      28.207 -25.855 -18.673  1.00  0.00    -0.218 NA
ATOM     46  C   UNL     1      25.580 -24.590 -18.572  1.00  0.00     0.025 C 
ATOM     47  C   UNL     1      27.565 -25.612 -17.370  1.00  0.00     0.184 C 
ATOM     48  C   UNL     1      26.033 -25.570 -17.494  1.00  0.00     0.035 C 
ATOM     49  H   UNL     1      27.989 -26.811 -18.991  1.00  0.00     0.149 HD
BRANCH  47  50
ATOM     50  C   UNL     1      27.982 -26.700 -16.413  1.00  0.00     0.324 C 
ATOM     51  O   UNL     1      29.092 -27.174 -16.360  1.00  0.00    -0.250 OA
BRANCH  50  52
ATOM     52  O   UNL     1      26.966 -27.087 -15.633  1.00  0.00    -0.464 OA
BRANCH  52  53
ATOM     53  C   UNL     1      27.323 -28.040 -14.590  1.00  0.00     0.239 CG0
ATOM     54  G   UNL     1      26.981 -27.357 -13.269  1.00  0.00     0.000 G0
ENDBRANCH  52  53
ENDBRANCH  50  52
ENDBRANCH  47  50
ENDBRANCH  41  43
ENDBRANCH  40  41
BRANCH  40  55
ATOM     55  N   UNL     1      30.970 -23.511 -19.784  1.00  0.00    -0.344 N 
ATOM     56  C   UNL     1      31.740 -24.540 -19.392  1.00  0.00     0.224 C 
ATOM     57  O   UNL     1      31.461 -25.244 -18.425  1.00  0.00    -0.275 OA
ATOM     58  H   UNL     1      31.355 -22.818 -20.440  1.00  0.00     0.164 HD
BRANCH  56  59
ATOM     59  C   UNL     1      32.905 -24.843 -20.245  1.00  0.00     0.081 C 
ATOM     60  C   UNL     1      33.608 -23.675 -20.879  1.00  0.00     0.018 C 
ATOM     61  C   UNL     1      34.280 -24.394 -19.769  1.00  0.00    -0.001 C 
ATOM     62  C   UNL     1      35.508 -25.241 -20.022  1.00  0.00     0.008 C 
ENDBRANCH  56  59
ENDBRANCH  40  55
ENDBRANCH   1  40
TORSDOF 7
ENDMDL
MODEL 5
REMARK VINA RESULT:    -7.192      1.777      2.300
REMARK INTER + INTRA:         -17.563
REMARK INTER:                 -15.521
REMARK INTRA:                  -2.042
REMARK UNBOUND:                -3.224
REMARK SMILES CCn1c(-c2cc(N3CCN(C)CC3)cnc2[C@H](C)OC)c2c3cc(ccc31)-c1csc(n1)C[C@H](NC(=O)[C@H]1C[C@@H]1C)C(=O)N1CCC[C@H](N1)C(=O)OCC(C)(C)C2
REMARK SMILES IDX 34 1 32 2 29 3 30 4 33 5 31 6 25 7 3 8 28 9 4 10 23 11 27 12
REMARK SMILES IDX 22 13 24 14 26 15 2 16 1 17 5 18 17 19 6 20 16 21 7 22 15 23
REMARK SMILES IDX 18 24 19 25 20 26 21 27 8 28 14 29 9 30 13 31 10 32 11 33
REMARK SMILES IDX 12 34 58 35 55 36 56 37 57 38 35 40 43 41 44 42 45 43 46 44
REMARK SMILES IDX 50 45 47 46 49 47 48 48 51 50 52 51 53 52 54 53 36 55 37 56
REMARK SMILES IDX 38 57 39 59 40 60 41 61 42 62
REMARK H PARENT 50 49 36 58
REMARK Flexibility Score:  160.900
ROOT
ATOM      1  C   UNL     1      24.952 -25.938  -9.832  1.00  0.00     0.102 C 
ENDROOT
BRANCH   1   2
ATOM      2  C   UNL     1      25.364 -24.583 -10.315  1.00  0.00     0.096 A 
ATOM      3  C   UNL     1      26.152 -23.027 -11.674  1.00  0.00     0.081 A 
ATOM      4  C   UNL     1      25.863 -22.230 -10.617  1.00  0.00     0.095 A 
ATOM      5  N   UNL     1      25.936 -24.385 -11.467  1.00  0.00    -0.241 NA
ATOM      6  S   UNL     1      25.082 -23.143  -9.401  1.00  0.00    -0.127 S 
BRANCH   3   7
ATOM      7  C   UNL     1      26.660 -22.627 -13.000  1.00  0.00     0.002 A 
ATOM      8  N   UNL     1      27.948 -21.642 -16.790  1.00  0.00    -0.340 N 
ATOM      9  C   UNL     1      27.584 -21.812 -15.468  1.00  0.00     0.049 A 
ATOM     10  C   UNL     1      27.713 -22.822 -17.475  1.00  0.00     0.054 A 
ATOM     11  C   UNL     1      27.086 -23.119 -15.316  1.00  0.00     0.004 A 
ATOM     12  C   UNL     1      27.612 -20.899 -14.419  1.00  0.00     0.027 A 
ATOM     13  C   UNL     1      27.177 -23.757 -16.591  1.00  0.00    -0.014 A 
ATOM     14  C   UNL     1      26.617 -23.524 -14.061  1.00  0.00     0.021 A 
ATOM     15  C   UNL     1      27.152 -21.337 -13.196  1.00  0.00     0.012 A 
BRANCH   8  16
ATOM     16  C   UNL     1      28.554 -20.413 -17.297  1.00  0.00     0.119 C 
ATOM     17  C   UNL     1      27.489 -19.497 -17.828  1.00  0.00     0.027 C 
ENDBRANCH   8  16
BRANCH  10  18
ATOM     18  C   UNL     1      28.062 -23.037 -18.882  1.00  0.00     0.025 A 
ATOM     19  C   UNL     1      27.111 -22.989 -19.927  1.00  0.00     0.078 A 
ATOM     20  C   UNL     1      29.390 -23.316 -19.196  1.00  0.00     0.039 A 
ATOM     21  N   UNL     1      27.472 -23.205 -21.198  1.00  0.00    -0.256 NA
ATOM     22  C   UNL     1      29.743 -23.553 -20.515  1.00  0.00     0.056 A 
ATOM     23  C   UNL     1      28.757 -23.476 -21.487  1.00  0.00     0.137 A 
BRANCH  19  24
ATOM     24  C   UNL     1      25.636 -22.705 -19.694  1.00  0.00     0.164 C 
ATOM     25  C   UNL     1      24.815 -23.427 -20.740  1.00  0.00     0.045 C 
BRANCH  24  26
ATOM     26  O   UNL     1      25.433 -21.301 -19.852  1.00  0.00    -0.375 OA
ATOM     27  C   UNL     1      24.257 -20.821 -19.219  1.00  0.00     0.195 C 
ENDBRANCH  24  26
ENDBRANCH  19  24
BRANCH  22  28
ATOM     28  N   UNL     1      31.058 -23.811 -20.859  1.00  0.00    -0.368 N 
ATOM     29  C   UNL     1      32.044 -24.284 -19.876  1.00  0.00     0.132 C 
ATOM     30  C   UNL     1      31.490 -23.796 -22.261  1.00  0.00     0.132 C 
ATOM     31  C   UNL     1      33.455 -23.840 -20.192  1.00  0.00     0.105 C 
ATOM     32  C   UNL     1      32.924 -23.353 -22.434  1.00  0.00     0.105 C 
ATOM     33  N   UNL     1      33.803 -24.141 -21.578  1.00  0.00    -0.303 NA
ATOM     34  C   UNL     1      35.204 -23.820 -21.851  1.00  0.00     0.105 C 
ENDBRANCH  22  28
ENDBRANCH  10  18
BRANCH  13  35
ATOM     35  C   UNL     1      26.798 -25.179 -16.898  1.00  0.00     0.048 C 
BRANCH  35  36
ATOM     36  C   UNL     1      27.757 -26.246 -16.350  1.00  0.00     0.003 CG0
ATOM     37  C   UNL     1      29.166 -25.842 -16.788  1.00  0.00     0.015 C 
ATOM     38  C   UNL     1      27.440 -27.626 -16.935  1.00  0.00     0.015 C 
ATOM     39  G   UNL     1      27.689 -26.319 -14.827  1.00  0.00     0.000 G0
ENDBRANCH  35  36
ENDBRANCH  13  35
ENDBRANCH   3   7
ENDBRANCH   1   2
BRANCH   1  40
ATOM     40  C   UNL     1      25.979 -26.506  -8.840  1.00  0.00     0.179 C 
BRANCH  40  41
ATOM     41  C   UNL     1      27.236 -26.906  -9.594  1.00  0.00     0.259 C 
ATOM     42  O   UNL     1      28.327 -26.405  -9.351  1.00  0.00    -0.271 OA
BRANCH  41  43
ATOM     43  N   UNL     1      27.104 -27.810 -10.615  1.00  0.00    -0.275 N 
ATOM     44  C   UNL     1      26.579 -29.174 -10.447  1.00  0.00     0.140 C 
ATOM     45  N   UNL     1      27.523 -27.450 -11.917  1.00  0.00    -0.218 NA
ATOM     46  C   UNL     1      27.709 -30.129 -10.778  1.00  0.00     0.025 C 
ATOM     47  C   UNL     1      28.607 -28.350 -12.345  1.00  0.00     0.184 C 
ATOM     48  C   UNL     1      28.212 -29.827 -12.186  1.00  0.00     0.035 C 
ATOM     49  H   UNL     1      26.729 -27.533 -12.569  1.00  0.00     0.149 HD
BRANCH  47  50
ATOM     50  C   UNL     1      28.946 -28.052 -13.784  1.00  0.00     0.324 C 
ATOM     51  O   UNL     1      30.065 -28.072 -14.240  1.00  0.00    -0.250 OA
BRANCH  50  52
ATOM     52  O   UNL     1      27.854 -27.751 -14.497  1.00  0.00    -0.464 OA
BRANCH  52  53
ATOM     53  C   UNL     1      27.700 -26.338 -14.814  1.00  0.00     0.239 CG0
ATOM     54  G   UNL     1      27.754 -26.245 -16.335  1.00  0.00     0.000 G0
ENDBRANCH  52  53
ENDBRANCH  50  52
ENDBRANCH  47  50
ENDBRANCH  41  43
ENDBRANCH  40  41
BRANCH  40  55
ATOM     55  N   UNL     1      26.249 -25.588  -7.748  1.00  0.00    -0.344 N 
ATOM     56  C   UNL     1      25.528 -25.608  -6.615  1.00  0.00     0.224 C 
ATOM     57  O   UNL     1      24.452 -26.192  -6.526  1.00  0.00    -0.275 OA
ATOM     58  H   UNL     1      27.013 -24.904  -7.844  1.00  0.00     0.164 HD
BRANCH  56  59
ATOM     59  C   UNL     1      26.144 -24.963  -5.439  1.00  0.00     0.081 C 
ATOM     60  C   UNL     1      27.425 -24.210  -5.669  1.00  0.00     0.018 C 
ATOM     61  C   UNL     1      26.186 -23.441  -5.397  1.00  0.00    -0.001 C 
ATOM     62  C   UNL     1      26.006 -22.693  -4.093  1.00  0.00     0.008 C 
ENDBRANCH  56  59
ENDBRANCH  40  55
ENDBRANCH   1  40
TORSDOF 7
ENDMDL
