MODEL 1
REMARK VINA RESULT:    -5.673      0.000      0.000
REMARK INTER + INTRA:         -15.548
REMARK INTER:                 -11.311
REMARK INTRA:                  -4.236
REMARK UNBOUND:                -4.236
REMARK SMILES CCn1c(-c2cc(N3CCN(C)CC3)cnc2[C@H](C)OC)c2c3cc(ccc31)-c1csc(n1)C[C@H](NC(=O)[C@H]1C[C@@H]1C)C(=O)N1CCC[C@H](N1)C(=O)OCC(C)(C)C2
REMARK SMILES IDX 34 1 32 2 29 3 30 4 33 5 31 6 25 7 3 8 28 9 4 10 23 11 27 12
REMARK SMILES IDX 22 13 24 14 26 15 2 16 1 17 5 18 17 19 6 20 16 21 7 22 15 23
REMARK SMILES IDX 18 24 19 25 20 26 21 27 8 28 14 29 9 30 13 31 10 32 11 33
REMARK SMILES IDX 12 34 58 35 55 36 56 37 57 38 35 40 43 41 44 42 45 43 46 44
REMARK SMILES IDX 50 45 47 46 49 47 48 48 51 50 52 51 53 52 54 53 36 55 37 56
REMARK SMILES IDX 38 57 39 59 40 60 41 61 42 62
REMARK H PARENT 50 49 36 58
REMARK Flexibility Score:  160.900
ROOT
ATOM      1  C   UNL     1     -22.073  20.068   2.331  1.00  0.00     0.102 C 
ENDROOT
BRANCH   1   2
ATOM      2  C   UNL     1     -22.815  21.270   1.836  1.00  0.00     0.096 A 
ATOM      3  C   UNL     1     -23.154  23.290   1.003  1.00  0.00     0.081 A 
ATOM      4  C   UNL     1     -24.449  22.925   1.152  1.00  0.00     0.095 A 
ATOM      5  N   UNL     1     -22.221  22.368   1.468  1.00  0.00    -0.241 NA
ATOM      6  S   UNL     1     -24.536  21.298   1.671  1.00  0.00    -0.127 S 
BRANCH   3   7
ATOM      7  C   UNL     1     -22.623  24.533   0.411  1.00  0.00     0.002 A 
ATOM      8  N   UNL     1     -20.956  27.958  -1.165  1.00  0.00    -0.340 N 
ATOM      9  C   UNL     1     -21.644  26.830  -0.762  1.00  0.00     0.049 A 
ATOM     10  C   UNL     1     -19.940  28.211  -0.259  1.00  0.00     0.054 A 
ATOM     11  C   UNL     1     -21.038  26.343   0.411  1.00  0.00     0.004 A 
ATOM     12  C   UNL     1     -22.715  26.183  -1.370  1.00  0.00     0.027 A 
ATOM     13  C   UNL     1     -19.962  27.227   0.729  1.00  0.00    -0.014 A 
ATOM     14  C   UNL     1     -21.539  25.176   0.998  1.00  0.00     0.021 A 
ATOM     15  C   UNL     1     -23.188  25.043  -0.757  1.00  0.00     0.012 A 
BRANCH   8  16
ATOM     16  C   UNL     1     -21.345  28.755  -2.326  1.00  0.00     0.119 C 
ATOM     17  C   UNL     1     -20.463  28.421  -3.496  1.00  0.00     0.027 C 
ENDBRANCH   8  16
BRANCH  10  18
ATOM     18  C   UNL     1     -19.059  29.380  -0.320  1.00  0.00     0.025 A 
ATOM     19  C   UNL     1     -19.476  30.679   0.053  1.00  0.00     0.078 A 
ATOM     20  C   UNL     1     -17.757  29.200  -0.781  1.00  0.00     0.039 A 
ATOM     21  N   UNL     1     -18.640  31.722  -0.031  1.00  0.00    -0.256 NA
ATOM     22  C   UNL     1     -16.911  30.294  -0.877  1.00  0.00     0.056 A 
ATOM     23  C   UNL     1     -17.387  31.534  -0.481  1.00  0.00     0.137 A 
BRANCH  19  24
ATOM     24  C   UNL     1     -20.876  30.988   0.558  1.00  0.00     0.164 C 
ATOM     25  C   UNL     1     -21.566  31.917  -0.417  1.00  0.00     0.045 C 
BRANCH  24  26
ATOM     26  O   UNL     1     -20.749  31.662   1.810  1.00  0.00    -0.375 OA
ATOM     27  C   UNL     1     -21.984  31.852   2.482  1.00  0.00     0.195 C 
ENDBRANCH  24  26
ENDBRANCH  19  24
BRANCH  22  28
ATOM     28  N   UNL     1     -15.606  30.141  -1.310  1.00  0.00    -0.368 N 
ATOM     29  C   UNL     1     -15.282  29.764  -2.695  1.00  0.00     0.132 C 
ATOM     30  C   UNL     1     -14.475  30.524  -0.457  1.00  0.00     0.132 C 
ATOM     31  C   UNL     1     -13.994  28.979  -2.809  1.00  0.00     0.105 C 
ATOM     32  C   UNL     1     -13.248  29.674  -0.686  1.00  0.00     0.105 C 
ATOM     33  N   UNL     1     -12.906  29.651  -2.103  1.00  0.00    -0.303 NA
ATOM     34  C   UNL     1     -11.635  28.955  -2.311  1.00  0.00     0.105 C 
ENDBRANCH  22  28
ENDBRANCH  10  18
BRANCH  13  35
ATOM     35  C   UNL     1     -19.057  27.126   1.925  1.00  0.00     0.048 C 
BRANCH  35  36
ATOM     36  C   UNL     1     -19.509  27.922   3.158  1.00  0.00     0.003 CG0
ATOM     37  C   UNL     1     -20.974  28.297   2.930  1.00  0.00     0.015 C 
ATOM     38  C   UNL     1     -18.693  29.209   3.313  1.00  0.00     0.015 C 
ATOM     39  G   UNL     1     -19.380  27.090   4.430  1.00  0.00     0.000 G0
ENDBRANCH  35  36
ENDBRANCH  13  35
ENDBRANCH   3   7
ENDBRANCH   1   2
BRANCH   1  40
ATOM     40  C   UNL     1     -20.870  20.478   3.195  1.00  0.00     0.179 C 
BRANCH  40  41
ATOM     41  C   UNL     1     -21.263  20.413   4.661  1.00  0.00     0.259 C 
ATOM     42  O   UNL     1     -21.309  19.354   5.276  1.00  0.00    -0.271 OA
BRANCH  41  43
ATOM     43  N   UNL     1     -21.633  21.582   5.274  1.00  0.00    -0.275 N 
ATOM     44  C   UNL     1     -22.997  21.874   5.740  1.00  0.00     0.140 C 
ATOM     45  N   UNL     1     -20.671  22.603   5.454  1.00  0.00    -0.218 NA
ATOM     46  C   UNL     1     -23.505  23.044   4.921  1.00  0.00     0.025 C 
ATOM     47  C   UNL     1     -21.094  23.804   4.716  1.00  0.00     0.184 C 
ATOM     48  C   UNL     1     -22.533  24.210   5.075  1.00  0.00     0.035 C 
ATOM     49  H   UNL     1     -20.589  22.826   6.457  1.00  0.00     0.149 HD
BRANCH  47  50
ATOM     50  C   UNL     1     -20.140  24.929   5.031  1.00  0.00     0.324 C 
ATOM     51  O   UNL     1     -19.309  24.894   5.907  1.00  0.00    -0.250 OA
BRANCH  50  52
ATOM     52  O   UNL     1     -20.335  25.981   4.226  1.00  0.00    -0.464 OA
BRANCH  52  53
ATOM     53  C   UNL     1     -19.410  27.087   4.431  1.00  0.00     0.239 CG0
ATOM     54  G   UNL     1     -19.491  27.937   3.167  1.00  0.00     0.000 G0
ENDBRANCH  52  53
ENDBRANCH  50  52
ENDBRANCH  47  50
ENDBRANCH  41  43
ENDBRANCH  40  41
BRANCH  40  55
ATOM     55  N   UNL     1     -19.688  19.689   2.896  1.00  0.00    -0.344 N 
ATOM     56  C   UNL     1     -18.782  20.093   1.991  1.00  0.00     0.224 C 
ATOM     57  O   UNL     1     -19.011  20.985   1.179  1.00  0.00    -0.275 OA
ATOM     58  H   UNL     1     -19.541  18.798   3.391  1.00  0.00     0.164 HD
BRANCH  56  59
ATOM     59  C   UNL     1     -17.449  19.467   2.081  1.00  0.00     0.081 C 
ATOM     60  C   UNL     1     -16.333  20.129   1.322  1.00  0.00     0.018 C 
ATOM     61  C   UNL     1     -16.346  20.230   2.802  1.00  0.00    -0.001 C 
ATOM     62  C   UNL     1     -15.315  19.505   3.640  1.00  0.00     0.008 C 
ENDBRANCH  56  59
ENDBRANCH  40  55
ENDBRANCH   1  40
TORSDOF 7
ENDMDL
MODEL 2
REMARK VINA RESULT:    -5.208      8.784     14.866
REMARK INTER + INTRA:         -14.620
REMARK INTER:                 -10.208
REMARK INTRA:                  -4.412
REMARK UNBOUND:                -4.236
REMARK SMILES CCn1c(-c2cc(N3CCN(C)CC3)cnc2[C@H](C)OC)c2c3cc(ccc31)-c1csc(n1)C[C@H](NC(=O)[C@H]1C[C@@H]1C)C(=O)N1CCC[C@H](N1)C(=O)OCC(C)(C)C2
REMARK SMILES IDX 34 1 32 2 29 3 30 4 33 5 31 6 25 7 3 8 28 9 4 10 23 11 27 12
REMARK SMILES IDX 22 13 24 14 26 15 2 16 1 17 5 18 17 19 6 20 16 21 7 22 15 23
REMARK SMILES IDX 18 24 19 25 20 26 21 27 8 28 14 29 9 30 13 31 10 32 11 33
REMARK SMILES IDX 12 34 58 35 55 36 56 37 57 38 35 40 43 41 44 42 45 43 46 44
REMARK SMILES IDX 50 45 47 46 49 47 48 48 51 50 52 51 53 52 54 53 36 55 37 56
REMARK SMILES IDX 38 57 39 59 40 60 41 61 42 62
REMARK H PARENT 50 49 36 58
REMARK Flexibility Score:  160.900
ROOT
ATOM      1  C   UNL     1      -2.222  27.381   2.227  1.00  0.00     0.102 C 
ENDROOT
BRANCH   1   2
ATOM      2  C   UNL     1      -2.607  28.730   1.706  1.00  0.00     0.096 A 
ATOM      3  C   UNL     1      -3.900  30.423   1.113  1.00  0.00     0.081 A 
ATOM      4  C   UNL     1      -2.704  30.976   0.800  1.00  0.00     0.095 A 
ATOM      5  N   UNL     1      -3.844  29.107   1.560  1.00  0.00    -0.241 NA
ATOM      6  S   UNL     1      -1.439  29.933   1.283  1.00  0.00    -0.127 S 
BRANCH   3   7
ATOM      7  C   UNL     1      -5.235  31.045   1.039  1.00  0.00     0.002 A 
ATOM      8  N   UNL     1      -9.036  32.612   0.739  1.00  0.00    -0.340 N 
ATOM      9  C   UNL     1      -7.736  32.208   0.972  1.00  0.00     0.049 A 
ATOM     10  C   UNL     1      -9.511  31.968  -0.390  1.00  0.00     0.054 A 
ATOM     11  C   UNL     1      -7.386  31.270  -0.016  1.00  0.00     0.004 A 
ATOM     12  C   UNL     1      -6.871  32.562   2.002  1.00  0.00     0.027 A 
ATOM     13  C   UNL     1      -8.514  31.127  -0.882  1.00  0.00    -0.014 A 
ATOM     14  C   UNL     1      -6.117  30.683   0.026  1.00  0.00     0.021 A 
ATOM     15  C   UNL     1      -5.626  31.971   2.005  1.00  0.00     0.012 A 
BRANCH   8  16
ATOM     16  C   UNL     1      -9.712  33.624   1.549  1.00  0.00     0.119 C 
ATOM     17  C   UNL     1      -9.212  34.992   1.184  1.00  0.00     0.027 C 
ENDBRANCH   8  16
BRANCH  10  18
ATOM     18  C   UNL     1     -10.826  32.219  -0.987  1.00  0.00     0.025 A 
ATOM     19  C   UNL     1     -11.075  33.287  -1.879  1.00  0.00     0.078 A 
ATOM     20  C   UNL     1     -11.877  31.373  -0.643  1.00  0.00     0.039 A 
ATOM     21  N   UNL     1     -12.296  33.487  -2.391  1.00  0.00    -0.256 NA
ATOM     22  C   UNL     1     -13.138  31.605  -1.169  1.00  0.00     0.056 A 
ATOM     23  C   UNL     1     -13.303  32.664  -2.048  1.00  0.00     0.137 A 
BRANCH  19  24
ATOM     24  C   UNL     1     -10.004  34.275  -2.311  1.00  0.00     0.164 C 
ATOM     25  C   UNL     1     -10.655  35.587  -2.691  1.00  0.00     0.045 C 
BRANCH  24  26
ATOM     26  O   UNL     1      -9.360  33.741  -3.468  1.00  0.00    -0.375 OA
ATOM     27  C   UNL     1      -8.215  34.476  -3.873  1.00  0.00     0.195 C 
ENDBRANCH  24  26
ENDBRANCH  19  24
BRANCH  22  28
ATOM     28  N   UNL     1     -14.197  30.767  -0.863  1.00  0.00    -0.368 N 
ATOM     29  C   UNL     1     -15.591  31.131  -1.160  1.00  0.00     0.132 C 
ATOM     30  C   UNL     1     -13.966  29.398  -0.390  1.00  0.00     0.132 C 
ATOM     31  C   UNL     1     -16.580  30.527  -0.187  1.00  0.00     0.105 C 
ATOM     32  C   UNL     1     -15.036  28.911   0.558  1.00  0.00     0.105 C 
ATOM     33  N   UNL     1     -16.356  29.092  -0.035  1.00  0.00    -0.303 NA
ATOM     34  C   UNL     1     -17.384  28.486   0.813  1.00  0.00     0.105 C 
ENDBRANCH  22  28
ENDBRANCH  10  18
BRANCH  13  35
ATOM     35  C   UNL     1      -8.584  30.260  -2.107  1.00  0.00     0.048 C 
BRANCH  35  36
ATOM     36  C   UNL     1      -9.153  28.851  -1.881  1.00  0.00     0.003 CG0
ATOM     37  C   UNL     1     -10.460  28.769  -2.671  1.00  0.00     0.015 C 
ATOM     38  C   UNL     1      -9.460  28.611  -0.400  1.00  0.00     0.015 C 
ATOM     39  G   UNL     1      -8.184  27.779  -2.372  1.00  0.00     0.000 G0
ENDBRANCH  35  36
ENDBRANCH  13  35
ENDBRANCH   3   7
ENDBRANCH   1   2
BRANCH   1  40
ATOM     40  C   UNL     1      -2.789  26.262   1.340  1.00  0.00     0.179 C 
BRANCH  40  41
ATOM     41  C   UNL     1      -2.133  26.329  -0.029  1.00  0.00     0.259 C 
ATOM     42  O   UNL     1      -0.926  26.187  -0.180  1.00  0.00    -0.271 OA
BRANCH  41  43
ATOM     43  N   UNL     1      -2.932  26.621  -1.104  1.00  0.00    -0.275 N 
ATOM     44  C   UNL     1      -2.577  27.585  -2.158  1.00  0.00     0.140 C 
ATOM     45  N   UNL     1      -4.196  25.997  -1.217  1.00  0.00    -0.218 NA
ATOM     46  C   UNL     1      -3.585  28.715  -2.083  1.00  0.00     0.025 C 
ATOM     47  C   UNL     1      -5.249  27.025  -1.187  1.00  0.00     0.184 C 
ATOM     48  C   UNL     1      -4.988  28.133  -2.220  1.00  0.00     0.035 C 
ATOM     49  H   UNL     1      -4.246  25.479  -2.106  1.00  0.00     0.149 HD
BRANCH  47  50
ATOM     50  C   UNL     1      -6.580  26.366  -1.452  1.00  0.00     0.324 C 
ATOM     51  O   UNL     1      -6.712  25.232  -1.848  1.00  0.00    -0.250 OA
BRANCH  50  52
ATOM     52  O   UNL     1      -7.600  27.197  -1.207  1.00  0.00    -0.464 OA
BRANCH  52  53
ATOM     53  C   UNL     1      -8.208  27.785  -2.393  1.00  0.00     0.239 CG0
ATOM     54  G   UNL     1      -9.170  28.853  -1.880  1.00  0.00     0.000 G0
ENDBRANCH  52  53
ENDBRANCH  50  52
ENDBRANCH  47  50
ENDBRANCH  41  43
ENDBRANCH  40  41
BRANCH  40  55
ATOM     55  N   UNL     1      -2.660  24.955   1.959  1.00  0.00    -0.344 N 
ATOM     56  C   UNL     1      -3.399  23.909   1.556  1.00  0.00     0.224 C 
ATOM     57  O   UNL     1      -4.396  24.036   0.851  1.00  0.00    -0.275 OA
ATOM     58  H   UNL     1      -1.986  24.827   2.726  1.00  0.00     0.164 HD
BRANCH  56  59
ATOM     59  C   UNL     1      -2.896  22.573   1.931  1.00  0.00     0.081 C 
ATOM     60  C   UNL     1      -2.321  22.425   3.313  1.00  0.00     0.018 C 
ATOM     61  C   UNL     1      -3.637  21.806   3.018  1.00  0.00    -0.001 C 
ATOM     62  C   UNL     1      -3.790  20.302   2.945  1.00  0.00     0.008 C 
ENDBRANCH  56  59
ENDBRANCH  40  55
ENDBRANCH   1  40
TORSDOF 7
ENDMDL
MODEL 3
REMARK VINA RESULT:    -5.198      8.560     14.309
REMARK INTER + INTRA:         -14.601
REMARK INTER:                 -10.325
REMARK INTRA:                  -4.276
REMARK UNBOUND:                -4.236
REMARK SMILES CCn1c(-c2cc(N3CCN(C)CC3)cnc2[C@H](C)OC)c2c3cc(ccc31)-c1csc(n1)C[C@H](NC(=O)[C@H]1C[C@@H]1C)C(=O)N1CCC[C@H](N1)C(=O)OCC(C)(C)C2
REMARK SMILES IDX 34 1 32 2 29 3 30 4 33 5 31 6 25 7 3 8 28 9 4 10 23 11 27 12
REMARK SMILES IDX 22 13 24 14 26 15 2 16 1 17 5 18 17 19 6 20 16 21 7 22 15 23
REMARK SMILES IDX 18 24 19 25 20 26 21 27 8 28 14 29 9 30 13 31 10 32 11 33
REMARK SMILES IDX 12 34 58 35 55 36 56 37 57 38 35 40 43 41 44 42 45 43 46 44
REMARK SMILES IDX 50 45 47 46 49 47 48 48 51 50 52 51 53 52 54 53 36 55 37 56
REMARK SMILES IDX 38 57 39 59 40 60 41 61 42 62
REMARK H PARENT 50 49 36 58
REMARK Flexibility Score:  160.900
ROOT
ATOM      1  C   UNL     1     -14.615  33.069  -0.853  1.00  0.00     0.102 C 
ENDROOT
BRANCH   1   2
ATOM      2  C   UNL     1     -13.341  33.805  -0.576  1.00  0.00     0.096 A 
ATOM      3  C   UNL     1     -11.230  34.137  -0.011  1.00  0.00     0.081 A 
ATOM      4  C   UNL     1     -11.565  35.424  -0.265  1.00  0.00     0.095 A 
ATOM      5  N   UNL     1     -12.272  33.222  -0.117  1.00  0.00    -0.241 NA
ATOM      6  S   UNL     1     -13.159  35.497  -0.878  1.00  0.00    -0.127 S 
BRANCH   3   7
ATOM      7  C   UNL     1      -9.906  33.599   0.357  1.00  0.00     0.002 A 
ATOM      8  N   UNL     1      -6.166  32.075   1.184  1.00  0.00    -0.340 N 
ATOM      9  C   UNL     1      -7.413  32.658   1.073  1.00  0.00     0.049 A 
ATOM     10  C   UNL     1      -5.956  31.253   0.090  1.00  0.00     0.054 A 
ATOM     11  C   UNL     1      -7.997  32.217  -0.129  1.00  0.00     0.004 A 
ATOM     12  C   UNL     1      -8.040  33.573   1.913  1.00  0.00     0.027 A 
ATOM     13  C   UNL     1      -7.071  31.320  -0.745  1.00  0.00    -0.014 A 
ATOM     14  C   UNL     1      -9.261  32.700  -0.486  1.00  0.00     0.021 A 
ATOM     15  C   UNL     1      -9.287  34.019   1.534  1.00  0.00     0.012 A 
BRANCH   8  16
ATOM     16  C   UNL     1      -5.295  32.273   2.340  1.00  0.00     0.119 C 
ATOM     17  C   UNL     1      -4.189  33.227   1.992  1.00  0.00     0.027 C 
ENDBRANCH   8  16
BRANCH  10  18
ATOM     18  C   UNL     1      -4.774  30.405  -0.084  1.00  0.00     0.025 A 
ATOM     19  C   UNL     1      -3.641  30.808  -0.828  1.00  0.00     0.078 A 
ATOM     20  C   UNL     1      -4.779  29.140   0.500  1.00  0.00     0.039 A 
ATOM     21  N   UNL     1      -2.586  29.994  -0.973  1.00  0.00    -0.256 NA
ATOM     22  C   UNL     1      -3.686  28.306   0.326  1.00  0.00     0.056 A 
ATOM     23  C   UNL     1      -2.606  28.775  -0.406  1.00  0.00     0.137 A 
BRANCH  19  24
ATOM     24  C   UNL     1      -3.536  32.159  -1.515  1.00  0.00     0.164 C 
ATOM     25  C   UNL     1      -3.781  31.989  -2.998  1.00  0.00     0.045 C 
BRANCH  24  26
ATOM     26  O   UNL     1      -2.204  32.639  -1.331  1.00  0.00    -0.375 OA
ATOM     27  C   UNL     1      -1.790  33.564  -2.324  1.00  0.00     0.195 C 
ENDBRANCH  24  26
ENDBRANCH  19  24
BRANCH  22  28
ATOM     28  N   UNL     1      -3.654  27.053   0.912  1.00  0.00    -0.368 N 
ATOM     29  C   UNL     1      -2.453  26.538   1.589  1.00  0.00     0.132 C 
ATOM     30  C   UNL     1      -4.873  26.247   1.045  1.00  0.00     0.132 C 
ATOM     31  C   UNL     1      -2.334  25.032   1.518  1.00  0.00     0.105 C 
ATOM     32  C   UNL     1      -4.611  24.762   0.977  1.00  0.00     0.105 C 
ATOM     33  N   UNL     1      -3.577  24.387   1.935  1.00  0.00    -0.303 NA
ATOM     34  C   UNL     1      -3.426  22.932   1.981  1.00  0.00     0.105 C 
ENDBRANCH  22  28
ENDBRANCH  10  18
BRANCH  13  35
ATOM     35  C   UNL     1      -7.286  30.570  -2.029  1.00  0.00     0.048 C 
BRANCH  35  36
ATOM     36  C   UNL     1      -8.117  29.284  -1.906  1.00  0.00     0.003 CG0
ATOM     37  C   UNL     1      -8.376  29.066  -0.414  1.00  0.00     0.015 C 
ATOM     38  C   UNL     1      -7.349  28.076  -2.450  1.00  0.00     0.015 C 
ATOM     39  G   UNL     1      -9.444  29.410  -2.648  1.00  0.00     0.000 G0
ENDBRANCH  35  36
ENDBRANCH  13  35
ENDBRANCH   3   7
ENDBRANCH   1   2
BRANCH   1  40
ATOM     40  C   UNL     1     -14.335  31.702  -1.496  1.00  0.00     0.179 C 
BRANCH  40  41
ATOM     41  C   UNL     1     -14.914  30.607  -0.616  1.00  0.00     0.259 C 
ATOM     42  O   UNL     1     -15.892  30.795   0.097  1.00  0.00    -0.271 OA
BRANCH  41  43
ATOM     43  N   UNL     1     -14.265  29.401  -0.591  1.00  0.00    -0.275 N 
ATOM     44  C   UNL     1     -14.189  28.528   0.592  1.00  0.00     0.140 C 
ATOM     45  N   UNL     1     -13.588  28.955  -1.750  1.00  0.00    -0.218 NA
ATOM     46  C   UNL     1     -12.729  28.449   0.991  1.00  0.00     0.025 C 
ATOM     47  C   UNL     1     -12.154  28.814  -1.451  1.00  0.00     0.184 C 
ATOM     48  C   UNL     1     -11.919  27.950  -0.201  1.00  0.00     0.035 C 
ATOM     49  H   UNL     1     -13.970  28.044  -2.043  1.00  0.00     0.149 HD
BRANCH  47  50
ATOM     50  C   UNL     1     -11.466  28.202  -2.645  1.00  0.00     0.324 C 
ATOM     51  O   UNL     1     -12.038  27.800  -3.631  1.00  0.00    -0.250 OA
BRANCH  50  52
ATOM     52  O   UNL     1     -10.139  28.147  -2.477  1.00  0.00    -0.464 OA
BRANCH  52  53
ATOM     53  C   UNL     1      -9.444  29.412  -2.672  1.00  0.00     0.239 CG0
ATOM     54  G   UNL     1      -8.141  29.296  -1.888  1.00  0.00     0.000 G0
ENDBRANCH  52  53
ENDBRANCH  50  52
ENDBRANCH  47  50
ENDBRANCH  41  43
ENDBRANCH  40  41
BRANCH  40  55
ATOM     55  N   UNL     1     -14.817  31.634  -2.865  1.00  0.00    -0.344 N 
ATOM     56  C   UNL     1     -14.001  31.320  -3.884  1.00  0.00     0.224 C 
ATOM     57  O   UNL     1     -12.778  31.338  -3.781  1.00  0.00    -0.275 OA
ATOM     58  H   UNL     1     -15.809  31.830  -3.058  1.00  0.00     0.164 HD
BRANCH  56  59
ATOM     59  C   UNL     1     -14.655  30.859  -5.123  1.00  0.00     0.081 C 
ATOM     60  C   UNL     1     -13.824  30.032  -6.065  1.00  0.00     0.018 C 
ATOM     61  C   UNL     1     -14.901  29.365  -5.291  1.00  0.00    -0.001 C 
ATOM     62  C   UNL     1     -16.148  28.852  -5.979  1.00  0.00     0.008 C 
ENDBRANCH  56  59
ENDBRANCH  40  55
ENDBRANCH   1  40
TORSDOF 7
ENDMDL
MODEL 4
REMARK VINA RESULT:    -4.820      8.332     13.925
REMARK INTER + INTRA:         -13.846
REMARK INTER:                  -9.256
REMARK INTRA:                  -4.590
REMARK UNBOUND:                -4.236
REMARK SMILES CCn1c(-c2cc(N3CCN(C)CC3)cnc2[C@H](C)OC)c2c3cc(ccc31)-c1csc(n1)C[C@H](NC(=O)[C@H]1C[C@@H]1C)C(=O)N1CCC[C@H](N1)C(=O)OCC(C)(C)C2
REMARK SMILES IDX 34 1 32 2 29 3 30 4 33 5 31 6 25 7 3 8 28 9 4 10 23 11 27 12
REMARK SMILES IDX 22 13 24 14 26 15 2 16 1 17 5 18 17 19 6 20 16 21 7 22 15 23
REMARK SMILES IDX 18 24 19 25 20 26 21 27 8 28 14 29 9 30 13 31 10 32 11 33
REMARK SMILES IDX 12 34 58 35 55 36 56 37 57 38 35 40 43 41 44 42 45 43 46 44
REMARK SMILES IDX 50 45 47 46 49 47 48 48 51 50 52 51 53 52 54 53 36 55 37 56
REMARK SMILES IDX 38 57 39 59 40 60 41 61 42 62
REMARK H PARENT 50 49 36 58
REMARK Flexibility Score:  160.900
ROOT
ATOM      1  C   UNL     1     -12.353  28.424   0.232  1.00  0.00     0.102 C 
ENDROOT
BRANCH   1   2
ATOM      2  C   UNL     1     -11.027  29.100   0.070  1.00  0.00     0.096 A 
ATOM      3  C   UNL     1      -9.470  30.660   0.242  1.00  0.00     0.081 A 
ATOM      4  C   UNL     1      -8.750  29.745  -0.449  1.00  0.00     0.095 A 
ATOM      5  N   UNL     1     -10.799  30.317   0.471  1.00  0.00    -0.241 NA
ATOM      6  S   UNL     1      -9.660  28.310  -0.634  1.00  0.00    -0.127 S 
BRANCH   3   7
ATOM      7  C   UNL     1      -9.016  31.958   0.776  1.00  0.00     0.002 A 
ATOM      8  N   UNL     1      -7.944  35.631   2.311  1.00  0.00    -0.340 N 
ATOM      9  C   UNL     1      -8.132  34.350   1.828  1.00  0.00     0.049 A 
ATOM     10  C   UNL     1      -9.079  36.379   2.050  1.00  0.00     0.054 A 
ATOM     11  C   UNL     1      -9.422  34.278   1.271  1.00  0.00     0.004 A 
ATOM     12  C   UNL     1      -7.284  33.249   1.888  1.00  0.00     0.027 A 
ATOM     13  C   UNL     1     -10.016  35.570   1.408  1.00  0.00    -0.014 A 
ATOM     14  C   UNL     1      -9.864  33.060   0.741  1.00  0.00     0.021 A 
ATOM     15  C   UNL     1      -7.749  32.070   1.347  1.00  0.00     0.012 A 
BRANCH   8  16
ATOM     16  C   UNL     1      -6.691  36.078   2.915  1.00  0.00     0.119 C 
ATOM     17  C   UNL     1      -6.757  35.922   4.407  1.00  0.00     0.027 C 
ENDBRANCH   8  16
BRANCH  10  18
ATOM     18  C   UNL     1      -9.205  37.810   2.344  1.00  0.00     0.025 A 
ATOM     19  C   UNL     1      -8.652  38.816   1.519  1.00  0.00     0.078 A 
ATOM     20  C   UNL     1      -9.888  38.187   3.498  1.00  0.00     0.039 A 
ATOM     21  N   UNL     1      -8.779  40.112   1.834  1.00  0.00    -0.256 NA
ATOM     22  C   UNL     1      -9.996  39.532   3.816  1.00  0.00     0.056 A 
ATOM     23  C   UNL     1      -9.439  40.462   2.952  1.00  0.00     0.137 A 
BRANCH  19  24
ATOM     24  C   UNL     1      -7.879  38.515   0.247  1.00  0.00     0.164 C 
ATOM     25  C   UNL     1      -6.394  38.581   0.533  1.00  0.00     0.045 C 
BRANCH  24  26
ATOM     26  O   UNL     1      -8.199  39.527  -0.708  1.00  0.00    -0.375 OA
ATOM     27  C   UNL     1      -8.127  39.084  -2.054  1.00  0.00     0.195 C 
ENDBRANCH  24  26
ENDBRANCH  19  24
BRANCH  22  28
ATOM     28  N   UNL     1     -10.688  39.937   4.944  1.00  0.00    -0.368 N 
ATOM     29  C   UNL     1     -10.052  39.999   6.269  1.00  0.00     0.132 C 
ATOM     30  C   UNL     1     -12.040  40.498   4.842  1.00  0.00     0.132 C 
ATOM     31  C   UNL     1     -11.023  39.753   7.403  1.00  0.00     0.105 C 
ATOM     32  C   UNL     1     -12.898  40.196   6.047  1.00  0.00     0.105 C 
ATOM     33  N   UNL     1     -12.209  40.594   7.269  1.00  0.00    -0.303 NA
ATOM     34  C   UNL     1     -13.094  40.444   8.426  1.00  0.00     0.105 C 
ENDBRANCH  22  28
ENDBRANCH  10  18
BRANCH  13  35
ATOM     35  C   UNL     1     -11.377  35.975   0.916  1.00  0.00     0.048 C 
BRANCH  35  36
ATOM     36  C   UNL     1     -11.421  36.510  -0.523  1.00  0.00     0.003 CG0
ATOM     37  C   UNL     1     -10.127  36.061  -1.202  1.00  0.00     0.015 C 
ATOM     38  C   UNL     1     -11.476  38.041  -0.541  1.00  0.00     0.015 C 
ATOM     39  G   UNL     1     -12.623  35.956  -1.281  1.00  0.00     0.000 G0
ENDBRANCH  35  36
ENDBRANCH  13  35
ENDBRANCH   3   7
ENDBRANCH   1   2
BRANCH   1  40
ATOM     40  C   UNL     1     -13.462  29.199  -0.496  1.00  0.00     0.179 C 
BRANCH  40  41
ATOM     41  C   UNL     1     -13.229  29.114  -1.995  1.00  0.00     0.259 C 
ATOM     42  O   UNL     1     -13.249  28.047  -2.597  1.00  0.00    -0.271 OA
BRANCH  41  43
ATOM     43  N   UNL     1     -12.929  30.274  -2.659  1.00  0.00    -0.275 N 
ATOM     44  C   UNL     1     -11.875  30.393  -3.679  1.00  0.00     0.140 C 
ATOM     45  N   UNL     1     -13.638  31.457  -2.343  1.00  0.00    -0.218 NA
ATOM     46  C   UNL     1     -10.831  31.345  -3.130  1.00  0.00     0.025 C 
ATOM     47  C   UNL     1     -12.696  32.464  -1.827  1.00  0.00     0.184 C 
ATOM     48  C   UNL     1     -11.507  32.667  -2.779  1.00  0.00     0.035 C 
ATOM     49  H   UNL     1     -14.099  31.819  -3.190  1.00  0.00     0.149 HD
BRANCH  47  50
ATOM     50  C   UNL     1     -13.435  33.764  -1.629  1.00  0.00     0.324 C 
ATOM     51  O   UNL     1     -14.483  34.041  -2.163  1.00  0.00    -0.250 OA
BRANCH  50  52
ATOM     52  O   UNL     1     -12.782  34.581  -0.795  1.00  0.00    -0.464 OA
BRANCH  52  53
ATOM     53  C   UNL     1     -12.625  35.948  -1.276  1.00  0.00     0.239 CG0
ATOM     54  G   UNL     1     -11.423  36.516  -0.527  1.00  0.00     0.000 G0
ENDBRANCH  52  53
ENDBRANCH  50  52
ENDBRANCH  47  50
ENDBRANCH  41  43
ENDBRANCH  40  41
BRANCH  40  55
ATOM     55  N   UNL     1     -14.787  28.750  -0.108  1.00  0.00    -0.344 N 
ATOM     56  C   UNL     1     -15.829  29.595  -0.052  1.00  0.00     0.224 C 
ATOM     57  O   UNL     1     -15.692  30.815  -0.055  1.00  0.00    -0.275 OA
ATOM     58  H   UNL     1     -14.932  27.758   0.129  1.00  0.00     0.164 HD
BRANCH  56  59
ATOM     59  C   UNL     1     -17.170  28.978  -0.081  1.00  0.00     0.081 C 
ATOM     60  C   UNL     1     -17.388  27.780   0.801  1.00  0.00     0.018 C 
ATOM     61  C   UNL     1     -18.026  29.066   1.175  1.00  0.00    -0.001 C 
ATOM     62  C   UNL     1     -19.527  29.243   1.085  1.00  0.00     0.008 C 
ENDBRANCH  56  59
ENDBRANCH  40  55
ENDBRANCH   1  40
TORSDOF 7
ENDMDL
MODEL 5
REMARK VINA RESULT:    -4.686      8.022     13.237
REMARK INTER + INTRA:         -13.580
REMARK INTER:                  -9.918
REMARK INTRA:                  -3.662
REMARK UNBOUND:                -4.236
REMARK SMILES CCn1c(-c2cc(N3CCN(C)CC3)cnc2[C@H](C)OC)c2c3cc(ccc31)-c1csc(n1)C[C@H](NC(=O)[C@H]1C[C@@H]1C)C(=O)N1CCC[C@H](N1)C(=O)OCC(C)(C)C2
REMARK SMILES IDX 34 1 32 2 29 3 30 4 33 5 31 6 25 7 3 8 28 9 4 10 23 11 27 12
REMARK SMILES IDX 22 13 24 14 26 15 2 16 1 17 5 18 17 19 6 20 16 21 7 22 15 23
REMARK SMILES IDX 18 24 19 25 20 26 21 27 8 28 14 29 9 30 13 31 10 32 11 33
REMARK SMILES IDX 12 34 58 35 55 36 56 37 57 38 35 40 43 41 44 42 45 43 46 44
REMARK SMILES IDX 50 45 47 46 49 47 48 48 51 50 52 51 53 52 54 53 36 55 37 56
REMARK SMILES IDX 38 57 39 59 40 60 41 61 42 62
REMARK H PARENT 50 49 36 58
REMARK Flexibility Score:  160.900
ROOT
ATOM      1  C   UNL     1     -11.980  27.962   0.166  1.00  0.00     0.102 C 
ENDROOT
BRANCH   1   2
ATOM      2  C   UNL     1     -10.778  28.843   0.021  1.00  0.00     0.096 A 
ATOM      3  C   UNL     1      -9.517  30.654   0.156  1.00  0.00     0.081 A 
ATOM      4  C   UNL     1      -8.611  29.833  -0.426  1.00  0.00     0.095 A 
ATOM      5  N   UNL     1     -10.781  30.105   0.341  1.00  0.00    -0.241 NA
ATOM      6  S   UNL     1      -9.255  28.254  -0.549  1.00  0.00    -0.127 S 
BRANCH   3   7
ATOM      7  C   UNL     1      -9.321  32.043   0.614  1.00  0.00     0.002 A 
ATOM      8  N   UNL     1      -8.974  35.931   1.940  1.00  0.00    -0.340 N 
ATOM      9  C   UNL     1      -8.911  34.616   1.523  1.00  0.00     0.049 A 
ATOM     10  C   UNL     1     -10.244  36.420   1.690  1.00  0.00     0.054 A 
ATOM     11  C   UNL     1     -10.175  34.256   1.020  1.00  0.00     0.004 A 
ATOM     12  C   UNL     1      -7.856  33.712   1.598  1.00  0.00     0.027 A 
ATOM     13  C   UNL     1     -11.015  35.407   1.122  1.00  0.00    -0.014 A 
ATOM     14  C   UNL     1     -10.376  32.948   0.563  1.00  0.00     0.021 A 
ATOM     15  C   UNL     1      -8.087  32.438   1.129  1.00  0.00     0.012 A 
BRANCH   8  16
ATOM     16  C   UNL     1      -7.821  36.652   2.474  1.00  0.00     0.119 C 
ATOM     17  C   UNL     1      -7.374  36.023   3.763  1.00  0.00     0.027 C 
ENDBRANCH   8  16
BRANCH  10  18
ATOM     18  C   UNL     1     -10.649  37.809   1.925  1.00  0.00     0.025 A 
ATOM     19  C   UNL     1     -10.581  38.810   0.928  1.00  0.00     0.078 A 
ATOM     20  C   UNL     1     -11.107  38.156   3.194  1.00  0.00     0.039 A 
ATOM     21  N   UNL     1     -10.950  40.070   1.191  1.00  0.00    -0.256 NA
ATOM     22  C   UNL     1     -11.469  39.469   3.452  1.00  0.00     0.056 A 
ATOM     23  C   UNL     1     -11.387  40.392   2.421  1.00  0.00     0.137 A 
BRANCH  19  24
ATOM     24  C   UNL     1     -10.087  38.542  -0.483  1.00  0.00     0.164 C 
ATOM     25  C   UNL     1      -8.590  38.759  -0.541  1.00  0.00     0.045 C 
BRANCH  24  26
ATOM     26  O   UNL     1     -10.712  39.489  -1.350  1.00  0.00    -0.375 OA
ATOM     27  C   UNL     1      -9.794  40.230  -2.141  1.00  0.00     0.195 C 
ENDBRANCH  24  26
ENDBRANCH  19  24
BRANCH  22  28
ATOM     28  N   UNL     1     -11.948  39.838   4.697  1.00  0.00    -0.368 N 
ATOM     29  C   UNL     1     -11.300  39.402   5.943  1.00  0.00     0.132 C 
ATOM     30  C   UNL     1     -13.020  40.830   4.831  1.00  0.00     0.132 C 
ATOM     31  C   UNL     1     -12.269  39.266   7.097  1.00  0.00     0.105 C 
ATOM     32  C   UNL     1     -13.901  40.590   6.034  1.00  0.00     0.105 C 
ATOM     33  N   UNL     1     -13.088  40.466   7.239  1.00  0.00    -0.303 NA
ATOM     34  C   UNL     1     -13.942  40.384   8.425  1.00  0.00     0.105 C 
ENDBRANCH  22  28
ENDBRANCH  10  18
BRANCH  13  35
ATOM     35  C   UNL     1     -12.444  35.504   0.666  1.00  0.00     0.048 C 
BRANCH  35  36
ATOM     36  C   UNL     1     -12.641  35.609  -0.853  1.00  0.00     0.003 CG0
ATOM     37  C   UNL     1     -11.246  35.689  -1.476  1.00  0.00     0.015 C 
ATOM     38  C   UNL     1     -13.414  36.879  -1.222  1.00  0.00     0.015 C 
ATOM     39  G   UNL     1     -13.384  34.393  -1.399  1.00  0.00     0.000 G0
ENDBRANCH  35  36
ENDBRANCH  13  35
ENDBRANCH   3   7
ENDBRANCH   1   2
BRANCH   1  40
ATOM     40  C   UNL     1     -13.151  28.483  -0.681  1.00  0.00     0.179 C 
BRANCH  40  41
ATOM     41  C   UNL     1     -14.262  28.959   0.240  1.00  0.00     0.259 C 
ATOM     42  O   UNL     1     -14.316  28.627   1.418  1.00  0.00    -0.271 OA
BRANCH  41  43
ATOM     43  N   UNL     1     -15.253  29.732  -0.305  1.00  0.00    -0.275 N 
ATOM     44  C   UNL     1     -16.231  29.245  -1.291  1.00  0.00     0.140 C 
ATOM     45  N   UNL     1     -15.348  31.095   0.060  1.00  0.00    -0.218 NA
ATOM     46  C   UNL     1     -15.988  30.016  -2.574  1.00  0.00     0.025 C 
ATOM     47  C   UNL     1     -15.157  31.932  -1.136  1.00  0.00     0.184 C 
ATOM     48  C   UNL     1     -16.094  31.509  -2.278  1.00  0.00     0.035 C 
ATOM     49  H   UNL     1     -16.278  31.280   0.464  1.00  0.00     0.149 HD
BRANCH  47  50
ATOM     50  C   UNL     1     -15.402  33.373  -0.765  1.00  0.00     0.324 C 
ATOM     51  O   UNL     1     -16.474  33.925  -0.845  1.00  0.00    -0.250 OA
BRANCH  50  52
ATOM     52  O   UNL     1     -14.282  33.973  -0.346  1.00  0.00    -0.464 OA
BRANCH  52  53
ATOM     53  C   UNL     1     -13.378  34.392  -1.408  1.00  0.00     0.239 CG0
ATOM     54  G   UNL     1     -12.634  35.609  -0.865  1.00  0.00     0.000 G0
ENDBRANCH  52  53
ENDBRANCH  50  52
ENDBRANCH  47  50
ENDBRANCH  41  43
ENDBRANCH  40  41
BRANCH  40  55
ATOM     55  N   UNL     1     -12.731  29.504  -1.625  1.00  0.00    -0.344 N 
ATOM     56  C   UNL     1     -12.453  29.208  -2.905  1.00  0.00     0.224 C 
ATOM     57  O   UNL     1     -12.271  28.058  -3.294  1.00  0.00    -0.275 OA
ATOM     58  H   UNL     1     -12.644  30.479  -1.305  1.00  0.00     0.164 HD
BRANCH  56  59
ATOM     59  C   UNL     1     -12.468  30.340  -3.853  1.00  0.00     0.081 C 
ATOM     60  C   UNL     1     -11.980  30.066  -5.248  1.00  0.00     0.018 C 
ATOM     61  C   UNL     1     -13.432  30.277  -5.029  1.00  0.00    -0.001 C 
ATOM     62  C   UNL     1     -14.121  31.524  -5.540  1.00  0.00     0.008 C 
ENDBRANCH  56  59
ENDBRANCH  40  55
ENDBRANCH   1  40
TORSDOF 7
ENDMDL
MODEL 6
REMARK VINA RESULT:    -4.643      7.722     12.072
REMARK INTER + INTRA:         -13.494
REMARK INTER:                  -8.704
REMARK INTRA:                  -4.790
REMARK UNBOUND:                -4.236
REMARK SMILES CCn1c(-c2cc(N3CCN(C)CC3)cnc2[C@H](C)OC)c2c3cc(ccc31)-c1csc(n1)C[C@H](NC(=O)[C@H]1C[C@@H]1C)C(=O)N1CCC[C@H](N1)C(=O)OCC(C)(C)C2
REMARK SMILES IDX 34 1 32 2 29 3 30 4 33 5 31 6 25 7 3 8 28 9 4 10 23 11 27 12
REMARK SMILES IDX 22 13 24 14 26 15 2 16 1 17 5 18 17 19 6 20 16 21 7 22 15 23
REMARK SMILES IDX 18 24 19 25 20 26 21 27 8 28 14 29 9 30 13 31 10 32 11 33
REMARK SMILES IDX 12 34 58 35 55 36 56 37 57 38 35 40 43 41 44 42 45 43 46 44
REMARK SMILES IDX 50 45 47 46 49 47 48 48 51 50 52 51 53 52 54 53 36 55 37 56
REMARK SMILES IDX 38 57 39 59 40 60 41 61 42 62
REMARK H PARENT 50 49 36 58
REMARK Flexibility Score:  160.900
ROOT
ATOM      1  C   UNL     1     -10.254  33.084  -2.760  1.00  0.00     0.102 C 
ENDROOT
BRANCH   1   2
ATOM      2  C   UNL     1     -10.499  31.998  -3.760  1.00  0.00     0.096 A 
ATOM      3  C   UNL     1     -11.607  30.676  -5.143  1.00  0.00     0.081 A 
ATOM      4  C   UNL     1     -10.369  30.165  -5.341  1.00  0.00     0.095 A 
ATOM      5  N   UNL     1     -11.688  31.675  -4.178  1.00  0.00    -0.241 NA
ATOM      6  S   UNL     1      -9.216  31.092  -4.484  1.00  0.00    -0.127 S 
BRANCH   3   7
ATOM      7  C   UNL     1     -12.863  30.303  -5.823  1.00  0.00     0.002 A 
ATOM      8  N   UNL     1     -16.465  29.272  -7.540  1.00  0.00    -0.340 N 
ATOM      9  C   UNL     1     -15.208  29.669  -7.130  1.00  0.00     0.049 A 
ATOM     10  C   UNL     1     -17.100  28.637  -6.486  1.00  0.00     0.054 A 
ATOM     11  C   UNL     1     -15.049  29.299  -5.782  1.00  0.00     0.004 A 
ATOM     12  C   UNL     1     -14.227  30.364  -7.832  1.00  0.00     0.027 A 
ATOM     13  C   UNL     1     -16.251  28.639  -5.380  1.00  0.00    -0.014 A 
ATOM     14  C   UNL     1     -13.858  29.627  -5.125  1.00  0.00     0.021 A 
ATOM     15  C   UNL     1     -13.064  30.660  -7.155  1.00  0.00     0.012 A 
BRANCH   8  16
ATOM     16  C   UNL     1     -16.952  29.452  -8.905  1.00  0.00     0.119 C 
ATOM     17  C   UNL     1     -16.685  28.214  -9.713  1.00  0.00     0.027 C 
ENDBRANCH   8  16
BRANCH  10  18
ATOM     18  C   UNL     1     -18.420  28.007  -6.582  1.00  0.00     0.025 A 
ATOM     19  C   UNL     1     -19.627  28.716  -6.387  1.00  0.00     0.078 A 
ATOM     20  C   UNL     1     -18.480  26.644  -6.865  1.00  0.00     0.039 A 
ATOM     21  N   UNL     1     -20.812  28.097  -6.472  1.00  0.00    -0.256 NA
ATOM     22  C   UNL     1     -19.714  26.017  -6.933  1.00  0.00     0.056 A 
ATOM     23  C   UNL     1     -20.855  26.780  -6.742  1.00  0.00     0.137 A 
BRANCH  19  24
ATOM     24  C   UNL     1     -19.675  30.200  -6.063  1.00  0.00     0.164 C 
ATOM     25  C   UNL     1     -20.883  30.486  -5.197  1.00  0.00     0.045 C 
BRANCH  24  26
ATOM     26  O   UNL     1     -19.825  30.910  -7.292  1.00  0.00    -0.375 OA
ATOM     27  C   UNL     1     -18.941  32.012  -7.426  1.00  0.00     0.195 C 
ENDBRANCH  24  26
ENDBRANCH  19  24
BRANCH  22  28
ATOM     28  N   UNL     1     -19.805  24.669  -7.234  1.00  0.00    -0.368 N 
ATOM     29  C   UNL     1     -21.030  24.075  -7.792  1.00  0.00     0.132 C 
ATOM     30  C   UNL     1     -18.625  23.799  -7.178  1.00  0.00     0.132 C 
ATOM     31  C   UNL     1     -21.218  22.627  -7.397  1.00  0.00     0.105 C 
ATOM     32  C   UNL     1     -18.956  22.377  -6.792  1.00  0.00     0.105 C 
ATOM     33  N   UNL     1     -20.008  21.852  -7.654  1.00  0.00    -0.303 NA
ATOM     34  C   UNL     1     -20.227  20.430  -7.384  1.00  0.00     0.105 C 
ENDBRANCH  22  28
ENDBRANCH  10  18
BRANCH  13  35
ATOM     35  C   UNL     1     -16.519  28.034  -4.031  1.00  0.00     0.048 C 
BRANCH  35  36
ATOM     36  C   UNL     1     -17.178  28.974  -3.010  1.00  0.00     0.003 CG0
ATOM     37  C   UNL     1     -18.633  28.526  -2.871  1.00  0.00     0.015 C 
ATOM     38  C   UNL     1     -17.158  30.424  -3.503  1.00  0.00     0.015 C 
ATOM     39  G   UNL     1     -16.480  28.894  -1.656  1.00  0.00     0.000 G0
ENDBRANCH  35  36
ENDBRANCH  13  35
ENDBRANCH   3   7
ENDBRANCH   1   2
BRANCH   1  40
ATOM     40  C   UNL     1     -10.956  32.779  -1.428  1.00  0.00     0.179 C 
BRANCH  40  41
ATOM     41  C   UNL     1     -10.228  31.644  -0.728  1.00  0.00     0.259 C 
ATOM     42  O   UNL     1      -9.069  31.752  -0.346  1.00  0.00    -0.271 OA
BRANCH  41  43
ATOM     43  N   UNL     1     -10.892  30.453  -0.587  1.00  0.00    -0.275 N 
ATOM     44  C   UNL     1     -10.296  29.137  -0.871  1.00  0.00     0.140 C 
ATOM     45  N   UNL     1     -12.245  30.459  -0.177  1.00  0.00    -0.218 NA
ATOM     46  C   UNL     1     -11.065  28.544  -2.034  1.00  0.00     0.025 C 
ATOM     47  C   UNL     1     -13.077  29.866  -1.237  1.00  0.00     0.184 C 
ATOM     48  C   UNL     1     -12.546  28.489  -1.669  1.00  0.00     0.035 C 
ATOM     49  H   UNL     1     -12.346  29.908   0.688  1.00  0.00     0.149 HD
BRANCH  47  50
ATOM     50  C   UNL     1     -14.493  29.744  -0.734  1.00  0.00     0.324 C 
ATOM     51  O   UNL     1     -14.793  29.565   0.423  1.00  0.00    -0.250 OA
BRANCH  50  52
ATOM     52  O   UNL     1     -15.382  29.848  -1.729  1.00  0.00    -0.464 OA
BRANCH  52  53
ATOM     53  C   UNL     1     -16.491  28.906  -1.659  1.00  0.00     0.239 CG0
ATOM     54  G   UNL     1     -17.180  28.974  -3.019  1.00  0.00     0.000 G0
ENDBRANCH  52  53
ENDBRANCH  50  52
ENDBRANCH  47  50
ENDBRANCH  41  43
ENDBRANCH  40  41
BRANCH  40  55
ATOM     55  N   UNL     1     -11.084  33.961  -0.594  1.00  0.00    -0.344 N 
ATOM     56  C   UNL     1     -12.131  34.132   0.229  1.00  0.00     0.224 C 
ATOM     57  O   UNL     1     -13.158  33.464   0.142  1.00  0.00    -0.275 OA
ATOM     58  H   UNL     1     -10.354  34.686  -0.635  1.00  0.00     0.164 HD
BRANCH  56  59
ATOM     59  C   UNL     1     -11.950  35.112   1.317  1.00  0.00     0.081 C 
ATOM     60  C   UNL     1     -10.763  36.030   1.217  1.00  0.00     0.018 C 
ATOM     61  C   UNL     1     -12.119  36.589   0.988  1.00  0.00    -0.001 C 
ATOM     62  C   UNL     1     -12.744  37.544   1.982  1.00  0.00     0.008 C 
ENDBRANCH  56  59
ENDBRANCH  40  55
ENDBRANCH   1  40
TORSDOF 7
ENDMDL
MODEL 7
REMARK VINA RESULT:    -4.637      1.702      3.556
REMARK INTER + INTRA:         -13.482
REMARK INTER:                  -8.778
REMARK INTRA:                  -4.704
REMARK UNBOUND:                -4.236
REMARK SMILES CCn1c(-c2cc(N3CCN(C)CC3)cnc2[C@H](C)OC)c2c3cc(ccc31)-c1csc(n1)C[C@H](NC(=O)[C@H]1C[C@@H]1C)C(=O)N1CCC[C@H](N1)C(=O)OCC(C)(C)C2
REMARK SMILES IDX 34 1 32 2 29 3 30 4 33 5 31 6 25 7 3 8 28 9 4 10 23 11 27 12
REMARK SMILES IDX 22 13 24 14 26 15 2 16 1 17 5 18 17 19 6 20 16 21 7 22 15 23
REMARK SMILES IDX 18 24 19 25 20 26 21 27 8 28 14 29 9 30 13 31 10 32 11 33
REMARK SMILES IDX 12 34 58 35 55 36 56 37 57 38 35 40 43 41 44 42 45 43 46 44
REMARK SMILES IDX 50 45 47 46 49 47 48 48 51 50 52 51 53 52 54 53 36 55 37 56
REMARK SMILES IDX 38 57 39 59 40 60 41 61 42 62
REMARK H PARENT 50 49 36 58
REMARK Flexibility Score:  160.900
ROOT
ATOM      1  C   UNL     1     -24.004  20.614   3.491  1.00  0.00     0.102 C 
ENDROOT
BRANCH   1   2
ATOM      2  C   UNL     1     -24.552  21.683   2.598  1.00  0.00     0.096 A 
ATOM      3  C   UNL     1     -24.578  23.437   1.254  1.00  0.00     0.081 A 
ATOM      4  C   UNL     1     -25.907  23.182   1.260  1.00  0.00     0.095 A 
ATOM      5  N   UNL     1     -23.814  22.623   2.083  1.00  0.00    -0.241 NA
ATOM      6  S   UNL     1     -26.217  21.746   2.135  1.00  0.00    -0.127 S 
BRANCH   3   7
ATOM      7  C   UNL     1     -23.854  24.464   0.479  1.00  0.00     0.002 A 
ATOM      8  N   UNL     1     -21.694  27.339  -1.535  1.00  0.00    -0.340 N 
ATOM      9  C   UNL     1     -22.488  26.333  -1.022  1.00  0.00     0.049 A 
ATOM     10  C   UNL     1     -21.110  28.029  -0.486  1.00  0.00     0.054 A 
ATOM     11  C   UNL     1     -22.388  26.369   0.381  1.00  0.00     0.004 A 
ATOM     12  C   UNL     1     -23.240  25.371  -1.690  1.00  0.00     0.027 A 
ATOM     13  C   UNL     1     -21.517  27.452   0.715  1.00  0.00    -0.014 A 
ATOM     14  C   UNL     1     -23.082  25.416   1.135  1.00  0.00     0.021 A 
ATOM     15  C   UNL     1     -23.918  24.457  -0.914  1.00  0.00     0.012 A 
BRANCH   8  16
ATOM     16  C   UNL     1     -21.596  27.626  -2.965  1.00  0.00     0.119 C 
ATOM     17  C   UNL     1     -20.627  26.679  -3.613  1.00  0.00     0.027 C 
ENDBRANCH   8  16
BRANCH  10  18
ATOM     18  C   UNL     1     -20.270  29.219  -0.653  1.00  0.00     0.025 A 
ATOM     19  C   UNL     1     -20.794  30.532  -0.683  1.00  0.00     0.078 A 
ATOM     20  C   UNL     1     -18.897  29.040  -0.802  1.00  0.00     0.039 A 
ATOM     21  N   UNL     1     -19.990  31.590  -0.850  1.00  0.00    -0.256 NA
ATOM     22  C   UNL     1     -18.083  30.145  -0.991  1.00  0.00     0.056 A 
ATOM     23  C   UNL     1     -18.667  31.403  -0.997  1.00  0.00     0.137 A 
BRANCH  19  24
ATOM     24  C   UNL     1     -22.275  30.838  -0.541  1.00  0.00     0.164 C 
ATOM     25  C   UNL     1     -22.621  32.046  -1.384  1.00  0.00     0.045 C 
BRANCH  24  26
ATOM     26  O   UNL     1     -22.524  31.159   0.828  1.00  0.00    -0.375 OA
ATOM     27  C   UNL     1     -23.654  30.494   1.373  1.00  0.00     0.195 C 
ENDBRANCH  24  26
ENDBRANCH  19  24
BRANCH  22  28
ATOM     28  N   UNL     1     -16.713  30.000  -1.121  1.00  0.00    -0.368 N 
ATOM     29  C   UNL     1     -16.070  29.789  -2.427  1.00  0.00     0.132 C 
ATOM     30  C   UNL     1     -15.816  30.228   0.018  1.00  0.00     0.132 C 
ATOM     31  C   UNL     1     -14.797  28.976  -2.336  1.00  0.00     0.105 C 
ATOM     32  C   UNL     1     -14.575  29.368  -0.024  1.00  0.00     0.105 C 
ATOM     33  N   UNL     1     -13.905  29.512  -1.312  1.00  0.00    -0.303 NA
ATOM     34  C   UNL     1     -12.626  28.800  -1.303  1.00  0.00     0.105 C 
ENDBRANCH  22  28
ENDBRANCH  10  18
BRANCH  13  35
ATOM     35  C   UNL     1     -21.150  27.896   2.103  1.00  0.00     0.048 C 
BRANCH  35  36
ATOM     36  C   UNL     1     -19.861  27.282   2.668  1.00  0.00     0.003 CG0
ATOM     37  C   UNL     1     -18.942  28.446   3.041  1.00  0.00     0.015 C 
ATOM     38  C   UNL     1     -19.154  26.419   1.618  1.00  0.00     0.015 C 
ATOM     39  G   UNL     1     -20.149  26.433   3.903  1.00  0.00     0.000 G0
ENDBRANCH  35  36
ENDBRANCH  13  35
ENDBRANCH   3   7
ENDBRANCH   1   2
BRANCH   1  40
ATOM     40  C   UNL     1     -23.541  21.199   4.834  1.00  0.00     0.179 C 
BRANCH  40  41
ATOM     41  C   UNL     1     -22.042  20.993   4.979  1.00  0.00     0.259 C 
ATOM     42  O   UNL     1     -21.567  20.244   5.824  1.00  0.00    -0.271 OA
BRANCH  41  43
ATOM     43  N   UNL     1     -21.218  21.727   4.166  1.00  0.00    -0.275 N 
ATOM     44  C   UNL     1     -20.598  21.210   2.936  1.00  0.00     0.140 C 
ATOM     45  N   UNL     1     -20.899  23.057   4.525  1.00  0.00    -0.218 NA
ATOM     46  C   UNL     1     -19.099  21.211   3.161  1.00  0.00     0.025 C 
ATOM     47  C   UNL     1     -19.446  23.168   4.735  1.00  0.00     0.184 C 
ATOM     48  C   UNL     1     -18.657  22.623   3.533  1.00  0.00     0.035 C 
ATOM     49  H   UNL     1     -21.187  23.696   3.770  1.00  0.00     0.149 HD
BRANCH  47  50
ATOM     50  C   UNL     1     -19.098  24.616   4.974  1.00  0.00     0.324 C 
ATOM     51  O   UNL     1     -18.789  25.076   6.048  1.00  0.00    -0.250 OA
BRANCH  50  52
ATOM     52  O   UNL     1     -19.184  25.337   3.850  1.00  0.00    -0.464 OA
BRANCH  52  53
ATOM     53  C   UNL     1     -20.144  26.432   3.896  1.00  0.00     0.239 CG0
ATOM     54  G   UNL     1     -19.852  27.292   2.671  1.00  0.00     0.000 G0
ENDBRANCH  52  53
ENDBRANCH  50  52
ENDBRANCH  47  50
ENDBRANCH  41  43
ENDBRANCH  40  41
BRANCH  40  55
ATOM     55  N   UNL     1     -23.933  22.589   4.988  1.00  0.00    -0.344 N 
ATOM     56  C   UNL     1     -24.456  23.050   6.136  1.00  0.00     0.224 C 
ATOM     57  O   UNL     1     -24.884  22.306   7.014  1.00  0.00    -0.275 OA
ATOM     58  H   UNL     1     -23.806  23.237   4.198  1.00  0.00     0.164 HD
BRANCH  56  59
ATOM     59  C   UNL     1     -24.407  24.512   6.332  1.00  0.00     0.081 C 
ATOM     60  C   UNL     1     -24.362  25.007   7.751  1.00  0.00     0.018 C 
ATOM     61  C   UNL     1     -23.138  25.114   6.920  1.00  0.00    -0.001 C 
ATOM     62  C   UNL     1     -22.629  26.463   6.457  1.00  0.00     0.008 C 
ENDBRANCH  56  59
ENDBRANCH  40  55
ENDBRANCH   1  40
TORSDOF 7
ENDMDL
MODEL 8
REMARK VINA RESULT:    -4.635      8.172     14.018
REMARK INTER + INTRA:         -13.477
REMARK INTER:                  -9.978
REMARK INTRA:                  -3.498
REMARK UNBOUND:                -4.236
REMARK SMILES CCn1c(-c2cc(N3CCN(C)CC3)cnc2[C@H](C)OC)c2c3cc(ccc31)-c1csc(n1)C[C@H](NC(=O)[C@H]1C[C@@H]1C)C(=O)N1CCC[C@H](N1)C(=O)OCC(C)(C)C2
REMARK SMILES IDX 34 1 32 2 29 3 30 4 33 5 31 6 25 7 3 8 28 9 4 10 23 11 27 12
REMARK SMILES IDX 22 13 24 14 26 15 2 16 1 17 5 18 17 19 6 20 16 21 7 22 15 23
REMARK SMILES IDX 18 24 19 25 20 26 21 27 8 28 14 29 9 30 13 31 10 32 11 33
REMARK SMILES IDX 12 34 58 35 55 36 56 37 57 38 35 40 43 41 44 42 45 43 46 44
REMARK SMILES IDX 50 45 47 46 49 47 48 48 51 50 52 51 53 52 54 53 36 55 37 56
REMARK SMILES IDX 38 57 39 59 40 60 41 61 42 62
REMARK H PARENT 50 49 36 58
REMARK Flexibility Score:  160.900
ROOT
ATOM      1  C   UNL     1      -3.165  28.074  -0.233  1.00  0.00     0.102 C 
ENDROOT
BRANCH   1   2
ATOM      2  C   UNL     1      -3.692  29.397   0.230  1.00  0.00     0.096 A 
ATOM      3  C   UNL     1      -5.137  31.028   0.600  1.00  0.00     0.081 A 
ATOM      4  C   UNL     1      -4.044  31.614   1.143  1.00  0.00     0.095 A 
ATOM      5  N   UNL     1      -4.913  29.789   0.008  1.00  0.00    -0.241 NA
ATOM      6  S   UNL     1      -2.735  30.515   1.138  1.00  0.00    -0.127 S 
BRANCH   3   7
ATOM      7  C   UNL     1      -6.520  31.543   0.564  1.00  0.00     0.002 A 
ATOM      8  N   UNL     1     -10.441  32.802   0.380  1.00  0.00    -0.340 N 
ATOM      9  C   UNL     1      -9.105  32.507   0.569  1.00  0.00     0.049 A 
ATOM     10  C   UNL     1     -10.910  32.082  -0.705  1.00  0.00     0.054 A 
ATOM     11  C   UNL     1      -8.723  31.563  -0.402  1.00  0.00     0.004 A 
ATOM     12  C   UNL     1      -8.227  32.964   1.547  1.00  0.00     0.027 A 
ATOM     13  C   UNL     1      -9.871  31.302  -1.212  1.00  0.00    -0.014 A 
ATOM     14  C   UNL     1      -7.411  31.077  -0.397  1.00  0.00     0.021 A 
ATOM     15  C   UNL     1      -6.941  32.472   1.515  1.00  0.00     0.012 A 
BRANCH   8  16
ATOM     16  C   UNL     1     -11.160  33.787   1.185  1.00  0.00     0.119 C 
ATOM     17  C   UNL     1     -10.477  35.122   1.092  1.00  0.00     0.027 C 
ENDBRANCH   8  16
BRANCH  10  18
ATOM     18  C   UNL     1     -12.264  32.209  -1.251  1.00  0.00     0.025 A 
ATOM     19  C   UNL     1     -12.590  33.097  -2.302  1.00  0.00     0.078 A 
ATOM     20  C   UNL     1     -13.274  31.428  -0.694  1.00  0.00     0.039 A 
ATOM     21  N   UNL     1     -13.845  33.190  -2.761  1.00  0.00    -0.256 NA
ATOM     22  C   UNL     1     -14.570  31.550  -1.171  1.00  0.00     0.056 A 
ATOM     23  C   UNL     1     -14.811  32.432  -2.213  1.00  0.00     0.137 A 
BRANCH  19  24
ATOM     24  C   UNL     1     -11.568  34.001  -2.971  1.00  0.00     0.164 C 
ATOM     25  C   UNL     1     -11.624  35.375  -2.339  1.00  0.00     0.045 C 
BRANCH  24  26
ATOM     26  O   UNL     1     -11.930  34.124  -4.347  1.00  0.00    -0.375 OA
ATOM     27  C   UNL     1     -11.502  35.339  -4.942  1.00  0.00     0.195 C 
ENDBRANCH  24  26
ENDBRANCH  19  24
BRANCH  22  28
ATOM     28  N   UNL     1     -15.590  30.771  -0.652  1.00  0.00    -0.368 N 
ATOM     29  C   UNL     1     -17.001  31.002  -0.998  1.00  0.00     0.132 C 
ATOM     30  C   UNL     1     -15.298  29.564   0.128  1.00  0.00     0.132 C 
ATOM     31  C   UNL     1     -17.953  30.611   0.110  1.00  0.00     0.105 C 
ATOM     32  C   UNL     1     -16.337  29.278   1.186  1.00  0.00     0.105 C 
ATOM     33  N   UNL     1     -17.669  29.263   0.595  1.00  0.00    -0.303 NA
ATOM     34  C   UNL     1     -18.662  28.839   1.583  1.00  0.00     0.105 C 
ENDBRANCH  22  28
ENDBRANCH  10  18
BRANCH  13  35
ATOM     35  C   UNL     1      -9.925  30.388  -2.403  1.00  0.00     0.048 C 
BRANCH  35  36
ATOM     36  C   UNL     1     -10.287  28.928  -2.093  1.00  0.00     0.003 CG0
ATOM     37  C   UNL     1     -11.738  28.729  -2.536  1.00  0.00     0.015 C 
ATOM     38  C   UNL     1     -10.192  28.643  -0.591  1.00  0.00     0.015 C 
ATOM     39  G   UNL     1      -9.379  27.961  -2.846  1.00  0.00     0.000 G0
ENDBRANCH  35  36
ENDBRANCH  13  35
ENDBRANCH   3   7
ENDBRANCH   1   2
BRANCH   1  40
ATOM     40  C   UNL     1      -3.182  27.044   0.907  1.00  0.00     0.179 C 
BRANCH  40  41
ATOM     41  C   UNL     1      -4.559  27.030   1.549  1.00  0.00     0.259 C 
ATOM     42  O   UNL     1      -4.753  27.455   2.681  1.00  0.00    -0.271 OA
BRANCH  41  43
ATOM     43  N   UNL     1      -5.586  26.464   0.840  1.00  0.00    -0.275 N 
ATOM     44  C   UNL     1      -5.954  25.041   0.915  1.00  0.00     0.140 C 
ATOM     45  N   UNL     1      -6.336  27.264  -0.052  1.00  0.00    -0.218 NA
ATOM     46  C   UNL     1      -5.705  24.445  -0.456  1.00  0.00     0.025 C 
ATOM     47  C   UNL     1      -6.183  26.741  -1.420  1.00  0.00     0.184 C 
ATOM     48  C   UNL     1      -6.499  25.238  -1.489  1.00  0.00     0.035 C 
ATOM     49  H   UNL     1      -7.330  27.240   0.216  1.00  0.00     0.149 HD
BRANCH  47  50
ATOM     50  C   UNL     1      -7.098  27.510  -2.340  1.00  0.00     0.324 C 
ATOM     51  O   UNL     1      -6.747  28.034  -3.370  1.00  0.00    -0.250 OA
BRANCH  50  52
ATOM     52  O   UNL     1      -8.350  27.552  -1.869  1.00  0.00    -0.464 OA
BRANCH  52  53
ATOM     53  C   UNL     1      -9.353  27.978  -2.836  1.00  0.00     0.239 CG0
ATOM     54  G   UNL     1     -10.286  28.918  -2.079  1.00  0.00     0.000 G0
ENDBRANCH  52  53
ENDBRANCH  50  52
ENDBRANCH  47  50
ENDBRANCH  41  43
ENDBRANCH  40  41
BRANCH  40  55
ATOM     55  N   UNL     1      -2.760  25.728   0.459  1.00  0.00    -0.344 N 
ATOM     56  C   UNL     1      -2.084  24.893   1.264  1.00  0.00     0.224 C 
ATOM     57  O   UNL     1      -1.548  25.266   2.304  1.00  0.00    -0.275 OA
ATOM     58  H   UNL     1      -2.986  25.428  -0.500  1.00  0.00     0.164 HD
BRANCH  56  59
ATOM     59  C   UNL     1      -2.092  23.468   0.879  1.00  0.00     0.081 C 
ATOM     60  C   UNL     1      -1.788  22.469   1.961  1.00  0.00     0.018 C 
ATOM     61  C   UNL     1      -3.181  22.575   1.460  1.00  0.00    -0.001 C 
ATOM     62  C   UNL     1      -3.798  21.464   0.639  1.00  0.00     0.008 C 
ENDBRANCH  56  59
ENDBRANCH  40  55
ENDBRANCH   1  40
TORSDOF 7
ENDMDL
MODEL 9
REMARK VINA RESULT:    -4.514     13.720     16.507
REMARK INTER + INTRA:         -13.236
REMARK INTER:                  -9.596
REMARK INTRA:                  -3.640
REMARK UNBOUND:                -4.236
REMARK SMILES CCn1c(-c2cc(N3CCN(C)CC3)cnc2[C@H](C)OC)c2c3cc(ccc31)-c1csc(n1)C[C@H](NC(=O)[C@H]1C[C@@H]1C)C(=O)N1CCC[C@H](N1)C(=O)OCC(C)(C)C2
REMARK SMILES IDX 34 1 32 2 29 3 30 4 33 5 31 6 25 7 3 8 28 9 4 10 23 11 27 12
REMARK SMILES IDX 22 13 24 14 26 15 2 16 1 17 5 18 17 19 6 20 16 21 7 22 15 23
REMARK SMILES IDX 18 24 19 25 20 26 21 27 8 28 14 29 9 30 13 31 10 32 11 33
REMARK SMILES IDX 12 34 58 35 55 36 56 37 57 38 35 40 43 41 44 42 45 43 46 44
REMARK SMILES IDX 50 45 47 46 49 47 48 48 51 50 52 51 53 52 54 53 36 55 37 56
REMARK SMILES IDX 38 57 39 59 40 60 41 61 42 62
REMARK H PARENT 50 49 36 58
REMARK Flexibility Score:  160.900
ROOT
ATOM      1  C   UNL     1      -6.000  25.344   0.745  1.00  0.00     0.102 C 
ENDROOT
BRANCH   1   2
ATOM      2  C   UNL     1      -6.204  26.526  -0.149  1.00  0.00     0.096 A 
ATOM      3  C   UNL     1      -6.699  28.593  -0.759  1.00  0.00     0.081 A 
ATOM      4  C   UNL     1      -6.381  28.104  -1.981  1.00  0.00     0.095 A 
ATOM      5  N   UNL     1      -6.670  27.665   0.276  1.00  0.00    -0.241 NA
ATOM      6  S   UNL     1      -5.802  26.502  -1.831  1.00  0.00    -0.127 S 
BRANCH   3   7
ATOM      7  C   UNL     1      -7.065  29.977  -0.403  1.00  0.00     0.002 A 
ATOM      8  N   UNL     1      -7.888  33.886   0.614  1.00  0.00    -0.340 N 
ATOM      9  C   UNL     1      -7.777  32.575   0.196  1.00  0.00     0.049 A 
ATOM     10  C   UNL     1      -6.810  34.192   1.426  1.00  0.00     0.054 A 
ATOM     11  C   UNL     1      -6.590  32.043   0.735  1.00  0.00     0.004 A 
ATOM     12  C   UNL     1      -8.603  31.842  -0.649  1.00  0.00     0.027 A 
ATOM     13  C   UNL     1      -5.985  33.072   1.520  1.00  0.00    -0.014 A 
ATOM     14  C   UNL     1      -6.235  30.726   0.425  1.00  0.00     0.021 A 
ATOM     15  C   UNL     1      -8.227  30.545  -0.924  1.00  0.00     0.012 A 
BRANCH   8  16
ATOM     16  C   UNL     1      -9.031  34.733   0.281  1.00  0.00     0.119 C 
ATOM     17  C   UNL     1     -10.129  34.534   1.286  1.00  0.00     0.027 C 
ENDBRANCH   8  16
BRANCH  10  18
ATOM     18  C   UNL     1      -6.642  35.472   2.120  1.00  0.00     0.025 A 
ATOM     19  C   UNL     1      -6.230  36.655   1.464  1.00  0.00     0.078 A 
ATOM     20  C   UNL     1      -6.887  35.514   3.491  1.00  0.00     0.039 A 
ATOM     21  N   UNL     1      -6.077  37.800   2.141  1.00  0.00    -0.256 NA
ATOM     22  C   UNL     1      -6.707  36.704   4.178  1.00  0.00     0.056 A 
ATOM     23  C   UNL     1      -6.314  37.826   3.465  1.00  0.00     0.137 A 
BRANCH  19  24
ATOM     24  C   UNL     1      -5.926  36.716  -0.023  1.00  0.00     0.164 C 
ATOM     25  C   UNL     1      -4.505  37.198  -0.225  1.00  0.00     0.045 C 
BRANCH  24  26
ATOM     26  O   UNL     1      -6.812  37.669  -0.610  1.00  0.00    -0.375 OA
ATOM     27  C   UNL     1      -6.335  38.214  -1.831  1.00  0.00     0.195 C 
ENDBRANCH  24  26
ENDBRANCH  19  24
BRANCH  22  28
ATOM     28  N   UNL     1      -6.964  36.782   5.536  1.00  0.00    -0.368 N 
ATOM     29  C   UNL     1      -7.623  37.950   6.140  1.00  0.00     0.132 C 
ATOM     30  C   UNL     1      -6.753  35.626   6.413  1.00  0.00     0.132 C 
ATOM     31  C   UNL     1      -7.195  38.197   7.569  1.00  0.00     0.105 C 
ATOM     32  C   UNL     1      -6.349  36.013   7.816  1.00  0.00     0.105 C 
ATOM     33  N   UNL     1      -7.295  36.977   8.365  1.00  0.00    -0.303 NA
ATOM     34  C   UNL     1      -6.995  37.241   9.773  1.00  0.00     0.105 C 
ENDBRANCH  22  28
ENDBRANCH  10  18
BRANCH  13  35
ATOM     35  C   UNL     1      -4.718  32.945   2.320  1.00  0.00     0.048 C 
BRANCH  35  36
ATOM     36  C   UNL     1      -3.448  33.452   1.621  1.00  0.00     0.003 CG0
ATOM     37  C   UNL     1      -3.074  34.777   2.288  1.00  0.00     0.015 C 
ATOM     38  C   UNL     1      -3.703  33.709   0.132  1.00  0.00     0.015 C 
ATOM     39  G   UNL     1      -2.302  32.456   1.769  1.00  0.00     0.000 G0
ENDBRANCH  35  36
ENDBRANCH  13  35
ENDBRANCH   3   7
ENDBRANCH   1   2
BRANCH   1  40
ATOM     40  C   UNL     1      -4.505  25.039   0.926  1.00  0.00     0.179 C 
BRANCH  40  41
ATOM     41  C   UNL     1      -3.839  26.206   1.635  1.00  0.00     0.259 C 
ATOM     42  O   UNL     1      -4.249  26.636   2.706  1.00  0.00    -0.271 OA
BRANCH  41  43
ATOM     43  N   UNL     1      -2.786  26.817   1.005  1.00  0.00    -0.275 N 
ATOM     44  C   UNL     1      -1.474  26.186   0.789  1.00  0.00     0.140 C 
ATOM     45  N   UNL     1      -2.929  28.149   0.550  1.00  0.00    -0.218 NA
ATOM     46  C   UNL     1      -0.462  26.986   1.584  1.00  0.00     0.025 C 
ATOM     47  C   UNL     1      -1.957  29.006   1.247  1.00  0.00     0.184 C 
ATOM     48  C   UNL     1      -0.530  28.445   1.141  1.00  0.00     0.035 C 
ATOM     49  H   UNL     1      -2.757  28.187  -0.464  1.00  0.00     0.149 HD
BRANCH  47  50
ATOM     50  C   UNL     1      -2.018  30.392   0.654  1.00  0.00     0.324 C 
ATOM     51  O   UNL     1      -1.377  30.753  -0.304  1.00  0.00    -0.250 OA
BRANCH  50  52
ATOM     52  O   UNL     1      -2.863  31.180   1.328  1.00  0.00    -0.464 OA
BRANCH  52  53
ATOM     53  C   UNL     1      -2.301  32.454   1.758  1.00  0.00     0.239 CG0
ATOM     54  G   UNL     1      -3.433  33.470   1.636  1.00  0.00     0.000 G0
ENDBRANCH  52  53
ENDBRANCH  50  52
ENDBRANCH  47  50
ENDBRANCH  41  43
ENDBRANCH  40  41
BRANCH  40  55
ATOM     55  N   UNL     1      -4.283  23.773   1.602  1.00  0.00    -0.344 N 
ATOM     56  C   UNL     1      -3.888  22.677   0.933  1.00  0.00     0.224 C 
ATOM     57  O   UNL     1      -3.948  22.591  -0.290  1.00  0.00    -0.275 OA
ATOM     58  H   UNL     1      -4.433  23.714   2.619  1.00  0.00     0.164 HD
BRANCH  56  59
ATOM     59  C   UNL     1      -3.284  21.602   1.744  1.00  0.00     0.081 C 
ATOM     60  C   UNL     1      -3.001  21.915   3.187  1.00  0.00     0.018 C 
ATOM     61  C   UNL     1      -4.118  20.994   2.864  1.00  0.00    -0.001 C 
ATOM     62  C   UNL     1      -4.028  19.519   3.190  1.00  0.00     0.008 C 
ENDBRANCH  56  59
ENDBRANCH  40  55
ENDBRANCH   1  40
TORSDOF 7
ENDMDL
MODEL 10
REMARK VINA RESULT:    -4.464      7.678     12.639
REMARK INTER + INTRA:         -13.137
REMARK INTER:                  -9.407
REMARK INTRA:                  -3.730
REMARK UNBOUND:                -4.236
REMARK SMILES CCn1c(-c2cc(N3CCN(C)CC3)cnc2[C@H](C)OC)c2c3cc(ccc31)-c1csc(n1)C[C@H](NC(=O)[C@H]1C[C@@H]1C)C(=O)N1CCC[C@H](N1)C(=O)OCC(C)(C)C2
REMARK SMILES IDX 34 1 32 2 29 3 30 4 33 5 31 6 25 7 3 8 28 9 4 10 23 11 27 12
REMARK SMILES IDX 22 13 24 14 26 15 2 16 1 17 5 18 17 19 6 20 16 21 7 22 15 23
REMARK SMILES IDX 18 24 19 25 20 26 21 27 8 28 14 29 9 30 13 31 10 32 11 33
REMARK SMILES IDX 12 34 58 35 55 36 56 37 57 38 35 40 43 41 44 42 45 43 46 44
REMARK SMILES IDX 50 45 47 46 49 47 48 48 51 50 52 51 53 52 54 53 36 55 37 56
REMARK SMILES IDX 38 57 39 59 40 60 41 61 42 62
REMARK H PARENT 50 49 36 58
REMARK Flexibility Score:  160.900
ROOT
ATOM      1  C   UNL     1     -16.270  30.238  -6.204  1.00  0.00     0.102 C 
ENDROOT
BRANCH   1   2
ATOM      2  C   UNL     1     -14.893  30.538  -6.706  1.00  0.00     0.096 A 
ATOM      3  C   UNL     1     -12.687  30.680  -6.723  1.00  0.00     0.081 A 
ATOM      4  C   UNL     1     -12.920  31.189  -7.956  1.00  0.00     0.095 A 
ATOM      5  N   UNL     1     -13.824  30.380  -5.981  1.00  0.00    -0.241 NA
ATOM      6  S   UNL     1     -14.588  31.086  -8.318  1.00  0.00    -0.127 S 
BRANCH   3   7
ATOM      7  C   UNL     1     -11.384  30.410  -6.085  1.00  0.00     0.002 A 
ATOM      8  N   UNL     1      -7.836  29.505  -4.191  1.00  0.00    -0.340 N 
ATOM      9  C   UNL     1      -8.922  29.881  -4.956  1.00  0.00     0.049 A 
ATOM     10  C   UNL     1      -8.288  29.032  -2.972  1.00  0.00     0.054 A 
ATOM     11  C   UNL     1     -10.090  29.620  -4.216  1.00  0.00     0.004 A 
ATOM     12  C   UNL     1      -8.960  30.382  -6.254  1.00  0.00     0.027 A 
ATOM     13  C   UNL     1      -9.681  29.088  -2.955  1.00  0.00    -0.014 A 
ATOM     14  C   UNL     1     -11.335  29.889  -4.796  1.00  0.00     0.021 A 
ATOM     15  C   UNL     1     -10.203  30.644  -6.788  1.00  0.00     0.012 A 
BRANCH   8  16
ATOM     16  C   UNL     1      -6.454  29.682  -4.631  1.00  0.00     0.119 C 
ATOM     17  C   UNL     1      -5.952  28.418  -5.269  1.00  0.00     0.027 C 
ENDBRANCH   8  16
BRANCH  10  18
ATOM     18  C   UNL     1      -7.409  28.624  -1.872  1.00  0.00     0.025 A 
ATOM     19  C   UNL     1      -6.837  29.543  -0.963  1.00  0.00     0.078 A 
ATOM     20  C   UNL     1      -7.116  27.270  -1.731  1.00  0.00     0.039 A 
ATOM     21  N   UNL     1      -6.028  29.128   0.020  1.00  0.00    -0.256 NA
ATOM     22  C   UNL     1      -6.263  26.860  -0.719  1.00  0.00     0.056 A 
ATOM     23  C   UNL     1      -5.751  27.818   0.142  1.00  0.00     0.137 A 
BRANCH  19  24
ATOM     24  C   UNL     1      -7.081  31.041  -1.033  1.00  0.00     0.164 C 
ATOM     25  C   UNL     1      -5.867  31.721  -1.628  1.00  0.00     0.045 C 
BRANCH  24  26
ATOM     26  O   UNL     1      -7.255  31.518   0.301  1.00  0.00    -0.375 OA
ATOM     27  C   UNL     1      -8.219  32.553   0.416  1.00  0.00     0.195 C 
ENDBRANCH  24  26
ENDBRANCH  19  24
BRANCH  22  28
ATOM     28  N   UNL     1      -5.971  25.518  -0.541  1.00  0.00    -0.368 N 
ATOM     29  C   UNL     1      -5.931  24.898   0.793  1.00  0.00     0.132 C 
ATOM     30  C   UNL     1      -5.863  24.609  -1.687  1.00  0.00     0.132 C 
ATOM     31  C   UNL     1      -4.960  23.741   0.878  1.00  0.00     0.105 C 
ATOM     32  C   UNL     1      -4.875  23.489  -1.462  1.00  0.00     0.105 C 
ATOM     33  N   UNL     1      -5.173  22.796  -0.214  1.00  0.00    -0.303 NA
ATOM     34  C   UNL     1      -4.316  21.619  -0.066  1.00  0.00     0.105 C 
ENDBRANCH  22  28
ENDBRANCH  10  18
BRANCH  13  35
ATOM     35  C   UNL     1     -10.589  28.701  -1.821  1.00  0.00     0.048 C 
BRANCH  35  36
ATOM     36  C   UNL     1     -11.163  29.873  -1.011  1.00  0.00     0.003 CG0
ATOM     37  C   UNL     1     -10.682  31.156  -1.690  1.00  0.00     0.015 C 
ATOM     38  C   UNL     1     -10.640  29.857   0.428  1.00  0.00     0.015 C 
ATOM     39  G   UNL     1     -12.688  29.836  -0.992  1.00  0.00     0.000 G0
ENDBRANCH  35  36
ENDBRANCH  13  35
ENDBRANCH   3   7
ENDBRANCH   1   2
BRANCH   1  40
ATOM     40  C   UNL     1     -16.379  30.509  -4.695  1.00  0.00     0.179 C 
BRANCH  40  41
ATOM     41  C   UNL     1     -16.237  29.198  -3.940  1.00  0.00     0.259 C 
ATOM     42  O   UNL     1     -15.903  28.159  -4.497  1.00  0.00    -0.271 OA
BRANCH  41  43
ATOM     43  N   UNL     1     -16.557  29.193  -2.608  1.00  0.00    -0.275 N 
ATOM     44  C   UNL     1     -17.751  29.842  -2.043  1.00  0.00     0.140 C 
ATOM     45  N   UNL     1     -15.687  28.562  -1.689  1.00  0.00    -0.218 NA
ATOM     46  C   UNL     1     -17.265  30.951  -1.132  1.00  0.00     0.025 C 
ATOM     47  C   UNL     1     -15.183  29.561  -0.732  1.00  0.00     0.184 C 
ATOM     48  C   UNL     1     -16.330  30.353  -0.085  1.00  0.00     0.035 C 
ATOM     49  H   UNL     1     -16.198  27.826  -1.180  1.00  0.00     0.149 HD
BRANCH  47  50
ATOM     50  C   UNL     1     -14.374  28.855   0.327  1.00  0.00     0.324 C 
ATOM     51  O   UNL     1     -14.845  28.161   1.196  1.00  0.00    -0.250 OA
BRANCH  50  52
ATOM     52  O   UNL     1     -13.065  29.100   0.194  1.00  0.00    -0.464 OA
BRANCH  52  53
ATOM     53  C   UNL     1     -12.701  29.846  -1.003  1.00  0.00     0.239 CG0
ATOM     54  G   UNL     1     -11.176  29.882  -1.022  1.00  0.00     0.000 G0
ENDBRANCH  52  53
ENDBRANCH  50  52
ENDBRANCH  47  50
ENDBRANCH  41  43
ENDBRANCH  40  41
BRANCH  40  55
ATOM     55  N   UNL     1     -15.432  31.517  -4.252  1.00  0.00    -0.344 N 
ATOM     56  C   UNL     1     -15.825  32.761  -3.935  1.00  0.00     0.224 C 
ATOM     57  O   UNL     1     -16.925  33.208  -4.248  1.00  0.00    -0.275 OA
ATOM     58  H   UNL     1     -14.435  31.271  -4.178  1.00  0.00     0.164 HD
BRANCH  56  59
ATOM     59  C   UNL     1     -14.893  33.546  -3.103  1.00  0.00     0.081 C 
ATOM     60  C   UNL     1     -15.492  34.616  -2.233  1.00  0.00     0.018 C 
ATOM     61  C   UNL     1     -14.971  33.384  -1.591  1.00  0.00    -0.001 C 
ATOM     62  C   UNL     1     -13.721  33.422  -0.737  1.00  0.00     0.008 C 
ENDBRANCH  56  59
ENDBRANCH  40  55
ENDBRANCH   1  40
TORSDOF 7
ENDMDL
MODEL 11
REMARK VINA RESULT:    -4.394      9.574     14.909
REMARK INTER + INTRA:         -12.997
REMARK INTER:                  -8.587
REMARK INTRA:                  -4.410
REMARK UNBOUND:                -4.236
REMARK SMILES CCn1c(-c2cc(N3CCN(C)CC3)cnc2[C@H](C)OC)c2c3cc(ccc31)-c1csc(n1)C[C@H](NC(=O)[C@H]1C[C@@H]1C)C(=O)N1CCC[C@H](N1)C(=O)OCC(C)(C)C2
REMARK SMILES IDX 34 1 32 2 29 3 30 4 33 5 31 6 25 7 3 8 28 9 4 10 23 11 27 12
REMARK SMILES IDX 22 13 24 14 26 15 2 16 1 17 5 18 17 19 6 20 16 21 7 22 15 23
REMARK SMILES IDX 18 24 19 25 20 26 21 27 8 28 14 29 9 30 13 31 10 32 11 33
REMARK SMILES IDX 12 34 58 35 55 36 56 37 57 38 35 40 43 41 44 42 45 43 46 44
REMARK SMILES IDX 50 45 47 46 49 47 48 48 51 50 52 51 53 52 54 53 36 55 37 56
REMARK SMILES IDX 38 57 39 59 40 60 41 61 42 62
REMARK H PARENT 50 49 36 58
REMARK Flexibility Score:  160.900
ROOT
ATOM      1  C   UNL     1     -13.956  29.703  -4.829  1.00  0.00     0.102 C 
ENDROOT
BRANCH   1   2
ATOM      2  C   UNL     1     -12.602  30.006  -5.390  1.00  0.00     0.096 A 
ATOM      3  C   UNL     1     -10.403  29.959  -5.616  1.00  0.00     0.081 A 
ATOM      4  C   UNL     1     -10.684  30.795  -6.644  1.00  0.00     0.095 A 
ATOM      5  N   UNL     1     -11.499  29.571  -4.853  1.00  0.00    -0.241 NA
ATOM      6  S   UNL     1     -12.377  30.935  -6.831  1.00  0.00    -0.127 S 
BRANCH   3   7
ATOM      7  C   UNL     1      -9.089  29.418  -5.219  1.00  0.00     0.002 A 
ATOM      8  N   UNL     1      -5.500  27.858  -3.925  1.00  0.00    -0.340 N 
ATOM      9  C   UNL     1      -6.639  28.356  -4.526  1.00  0.00     0.049 A 
ATOM     10  C   UNL     1      -5.587  28.065  -2.559  1.00  0.00     0.054 A 
ATOM     11  C   UNL     1      -7.477  28.869  -3.519  1.00  0.00     0.004 A 
ATOM     12  C   UNL     1      -7.008  28.346  -5.868  1.00  0.00     0.027 A 
ATOM     13  C   UNL     1      -6.801  28.688  -2.274  1.00  0.00    -0.014 A 
ATOM     14  C   UNL     1      -8.719  29.404  -3.878  1.00  0.00     0.021 A 
ATOM     15  C   UNL     1      -8.233  28.890  -6.184  1.00  0.00     0.012 A 
BRANCH   8  16
ATOM     16  C   UNL     1      -4.385  27.290  -4.680  1.00  0.00     0.119 C 
ATOM     17  C   UNL     1      -4.564  25.806  -4.821  1.00  0.00     0.027 C 
ENDBRANCH   8  16
BRANCH  10  18
ATOM     18  C   UNL     1      -4.517  27.741  -1.610  1.00  0.00     0.025 A 
ATOM     19  C   UNL     1      -3.405  28.585  -1.387  1.00  0.00     0.078 A 
ATOM     20  C   UNL     1      -4.600  26.540  -0.911  1.00  0.00     0.039 A 
ATOM     21  N   UNL     1      -2.443  28.243  -0.520  1.00  0.00    -0.256 NA
ATOM     22  C   UNL     1      -3.587  26.195  -0.029  1.00  0.00     0.056 A 
ATOM     23  C   UNL     1      -2.534  27.078   0.147  1.00  0.00     0.137 A 
BRANCH  19  24
ATOM     24  C   UNL     1      -3.211  29.910  -2.105  1.00  0.00     0.164 C 
ATOM     25  C   UNL     1      -2.262  29.718  -3.267  1.00  0.00     0.045 C 
BRANCH  24  26
ATOM     26  O   UNL     1      -2.615  30.822  -1.182  1.00  0.00    -0.375 OA
ATOM     27  C   UNL     1      -2.298  32.083  -1.752  1.00  0.00     0.195 C 
ENDBRANCH  24  26
ENDBRANCH  19  24
BRANCH  22  28
ATOM     28  N   UNL     1      -3.653  25.017   0.696  1.00  0.00    -0.368 N 
ATOM     29  C   UNL     1      -2.534  24.551   1.530  1.00  0.00     0.132 C 
ATOM     30  C   UNL     1      -4.909  24.268   0.810  1.00  0.00     0.132 C 
ATOM     31  C   UNL     1      -2.468  23.044   1.641  1.00  0.00     0.105 C 
ATOM     32  C   UNL     1      -4.699  22.777   0.934  1.00  0.00     0.105 C 
ATOM     33  N   UNL     1      -3.765  22.488   2.016  1.00  0.00    -0.303 NA
ATOM     34  C   UNL     1      -3.673  21.044   2.239  1.00  0.00     0.105 C 
ENDBRANCH  22  28
ENDBRANCH  10  18
BRANCH  13  35
ATOM     35  C   UNL     1      -7.299  29.124  -0.925  1.00  0.00     0.048 C 
BRANCH  35  36
ATOM     36  C   UNL     1      -6.875  30.536  -0.495  1.00  0.00     0.003 CG0
ATOM     37  C   UNL     1      -6.471  31.284  -1.766  1.00  0.00     0.015 C 
ATOM     38  C   UNL     1      -5.668  30.487   0.447  1.00  0.00     0.015 C 
ATOM     39  G   UNL     1      -8.020  31.271   0.196  1.00  0.00     0.000 G0
ENDBRANCH  35  36
ENDBRANCH  13  35
ENDBRANCH   3   7
ENDBRANCH   1   2
BRANCH   1  40
ATOM     40  C   UNL     1     -14.292  30.639  -3.658  1.00  0.00     0.179 C 
BRANCH  40  41
ATOM     41  C   UNL     1     -14.131  29.881  -2.351  1.00  0.00     0.259 C 
ATOM     42  O   UNL     1     -15.084  29.628  -1.624  1.00  0.00    -0.271 OA
BRANCH  41  43
ATOM     43  N   UNL     1     -12.862  29.536  -1.968  1.00  0.00    -0.275 N 
ATOM     44  C   UNL     1     -12.424  28.155  -1.711  1.00  0.00     0.140 C 
ATOM     45  N   UNL     1     -11.899  30.552  -1.766  1.00  0.00    -0.218 NA
ATOM     46  C   UNL     1     -12.061  28.070  -0.242  1.00  0.00     0.025 C 
ATOM     47  C   UNL     1     -11.456  30.529  -0.362  1.00  0.00     0.184 C 
ATOM     48  C   UNL     1     -11.001  29.124   0.065  1.00  0.00     0.035 C 
ATOM     49  H   UNL     1     -11.091  30.389  -2.384  1.00  0.00     0.149 HD
BRANCH  47  50
ATOM     50  C   UNL     1     -10.328  31.517  -0.192  1.00  0.00     0.324 C 
ATOM     51  O   UNL     1     -10.449  32.611   0.307  1.00  0.00    -0.250 OA
BRANCH  50  52
ATOM     52  O   UNL     1      -9.175  31.037  -0.672  1.00  0.00    -0.464 OA
BRANCH  52  53
ATOM     53  C   UNL     1      -8.013  31.276   0.174  1.00  0.00     0.239 CG0
ATOM     54  G   UNL     1      -6.857  30.535  -0.491  1.00  0.00     0.000 G0
ENDBRANCH  52  53
ENDBRANCH  50  52
ENDBRANCH  47  50
ENDBRANCH  41  43
ENDBRANCH  40  41
BRANCH  40  55
ATOM     55  N   UNL     1     -13.511  31.863  -3.696  1.00  0.00    -0.344 N 
ATOM     56  C   UNL     1     -14.021  33.037  -3.290  1.00  0.00     0.224 C 
ATOM     57  O   UNL     1     -15.225  33.213  -3.124  1.00  0.00    -0.275 OA
ATOM     58  H   UNL     1     -12.542  31.829  -4.041  1.00  0.00     0.164 HD
BRANCH  56  59
ATOM     59  C   UNL     1     -13.044  34.092  -2.961  1.00  0.00     0.081 C 
ATOM     60  C   UNL     1     -11.891  34.274  -3.910  1.00  0.00     0.018 C 
ATOM     61  C   UNL     1     -12.960  35.303  -3.881  1.00  0.00    -0.001 C 
ATOM     62  C   UNL     1     -12.691  36.686  -3.327  1.00  0.00     0.008 C 
ENDBRANCH  56  59
ENDBRANCH  40  55
ENDBRANCH   1  40
TORSDOF 7
ENDMDL
MODEL 12
REMARK VINA RESULT:    -4.388      8.650     15.100
REMARK INTER + INTRA:         -12.986
REMARK INTER:                  -8.352
REMARK INTRA:                  -4.634
REMARK UNBOUND:                -4.236
REMARK SMILES CCn1c(-c2cc(N3CCN(C)CC3)cnc2[C@H](C)OC)c2c3cc(ccc31)-c1csc(n1)C[C@H](NC(=O)[C@H]1C[C@@H]1C)C(=O)N1CCC[C@H](N1)C(=O)OCC(C)(C)C2
REMARK SMILES IDX 34 1 32 2 29 3 30 4 33 5 31 6 25 7 3 8 28 9 4 10 23 11 27 12
REMARK SMILES IDX 22 13 24 14 26 15 2 16 1 17 5 18 17 19 6 20 16 21 7 22 15 23
REMARK SMILES IDX 18 24 19 25 20 26 21 27 8 28 14 29 9 30 13 31 10 32 11 33
REMARK SMILES IDX 12 34 58 35 55 36 56 37 57 38 35 40 43 41 44 42 45 43 46 44
REMARK SMILES IDX 50 45 47 46 49 47 48 48 51 50 52 51 53 52 54 53 36 55 37 56
REMARK SMILES IDX 38 57 39 59 40 60 41 61 42 62
REMARK H PARENT 50 49 36 58
REMARK Flexibility Score:  160.900
ROOT
ATOM      1  C   UNL     1      -2.146  27.604   1.869  1.00  0.00     0.102 C 
ENDROOT
BRANCH   1   2
ATOM      2  C   UNL     1      -2.605  28.998   1.576  1.00  0.00     0.096 A 
ATOM      3  C   UNL     1      -3.987  30.667   1.139  1.00  0.00     0.081 A 
ATOM      4  C   UNL     1      -2.831  31.371   1.138  1.00  0.00     0.095 A 
ATOM      5  N   UNL     1      -3.845  29.295   1.315  1.00  0.00    -0.241 NA
ATOM      6  S   UNL     1      -1.534  30.355   1.595  1.00  0.00    -0.127 S 
BRANCH   3   7
ATOM      7  C   UNL     1      -5.362  31.179   0.981  1.00  0.00     0.002 A 
ATOM      8  N   UNL     1      -9.257  32.427   0.464  1.00  0.00    -0.340 N 
ATOM      9  C   UNL     1      -7.937  32.143   0.758  1.00  0.00     0.049 A 
ATOM     10  C   UNL     1      -9.656  31.645  -0.607  1.00  0.00     0.054 A 
ATOM     11  C   UNL     1      -7.497  31.144  -0.129  1.00  0.00     0.004 A 
ATOM     12  C   UNL     1      -7.125  32.656   1.765  1.00  0.00     0.027 A 
ATOM     13  C   UNL     1      -8.589  30.837  -0.997  1.00  0.00    -0.014 A 
ATOM     14  C   UNL     1      -6.189  30.659  -0.008  1.00  0.00     0.021 A 
ATOM     15  C   UNL     1      -5.842  32.162   1.846  1.00  0.00     0.012 A 
BRANCH   8  16
ATOM     16  C   UNL     1     -10.023  33.458   1.159  1.00  0.00     0.119 C 
ATOM     17  C   UNL     1      -9.716  34.808   0.576  1.00  0.00     0.027 C 
ENDBRANCH   8  16
BRANCH  10  18
ATOM     18  C   UNL     1     -10.970  31.741  -1.248  1.00  0.00     0.025 A 
ATOM     19  C   UNL     1     -11.210  32.531  -2.396  1.00  0.00     0.078 A 
ATOM     20  C   UNL     1     -12.029  31.031  -0.688  1.00  0.00     0.039 A 
ATOM     21  N   UNL     1     -12.431  32.600  -2.942  1.00  0.00    -0.256 NA
ATOM     22  C   UNL     1     -13.289  31.127  -1.257  1.00  0.00     0.056 A 
ATOM     23  C   UNL     1     -13.446  31.911  -2.389  1.00  0.00     0.137 A 
BRANCH  19  24
ATOM     24  C   UNL     1     -10.130  33.353  -3.079  1.00  0.00     0.164 C 
ATOM     25  C   UNL     1     -10.763  34.548  -3.758  1.00  0.00     0.045 C 
BRANCH  24  26
ATOM     26  O   UNL     1      -9.527  32.534  -4.081  1.00  0.00    -0.375 OA
ATOM     27  C   UNL     1      -8.594  33.226  -4.897  1.00  0.00     0.195 C 
ENDBRANCH  24  26
ENDBRANCH  19  24
BRANCH  22  28
ATOM     28  N   UNL     1     -14.356  30.415  -0.735  1.00  0.00    -0.368 N 
ATOM     29  C   UNL     1     -15.736  30.628  -1.197  1.00  0.00     0.132 C 
ATOM     30  C   UNL     1     -14.139  29.287   0.177  1.00  0.00     0.132 C 
ATOM     31  C   UNL     1     -16.767  30.360  -0.122  1.00  0.00     0.105 C 
ATOM     32  C   UNL     1     -15.251  29.119   1.185  1.00  0.00     0.105 C 
ATOM     33  N   UNL     1     -16.542  29.063   0.509  1.00  0.00    -0.303 NA
ATOM     34  C   UNL     1     -17.606  28.750   1.465  1.00  0.00     0.105 C 
ENDBRANCH  22  28
ENDBRANCH  10  18
BRANCH  13  35
ATOM     35  C   UNL     1      -8.567  29.854  -2.134  1.00  0.00     0.048 C 
BRANCH  35  36
ATOM     36  C   UNL     1      -9.234  28.502  -1.845  1.00  0.00     0.003 CG0
ATOM     37  C   UNL     1     -10.615  28.540  -2.502  1.00  0.00     0.015 C 
ATOM     38  C   UNL     1      -9.416  28.287  -0.339  1.00  0.00     0.015 C 
ATOM     39  G   UNL     1      -8.418  27.349  -2.421  1.00  0.00     0.000 G0
ENDBRANCH  35  36
ENDBRANCH  13  35
ENDBRANCH   3   7
ENDBRANCH   1   2
BRANCH   1  40
ATOM     40  C   UNL     1      -1.777  26.860   0.576  1.00  0.00     0.179 C 
BRANCH  40  41
ATOM     41  C   UNL     1      -2.567  25.565   0.502  1.00  0.00     0.259 C 
ATOM     42  O   UNL     1      -2.020  24.472   0.414  1.00  0.00    -0.271 OA
BRANCH  41  43
ATOM     43  N   UNL     1      -3.935  25.655   0.472  1.00  0.00    -0.275 N 
ATOM     44  C   UNL     1      -4.834  24.834   1.298  1.00  0.00     0.140 C 
ATOM     45  N   UNL     1      -4.549  26.561  -0.423  1.00  0.00    -0.218 NA
ATOM     46  C   UNL     1      -5.641  23.969   0.350  1.00  0.00     0.025 C 
ATOM     47  C   UNL     1      -5.389  25.812  -1.373  1.00  0.00     0.184 C 
ATOM     48  C   UNL     1      -6.363  24.871  -0.646  1.00  0.00     0.035 C 
ATOM     49  H   UNL     1      -5.135  27.223   0.105  1.00  0.00     0.149 HD
BRANCH  47  50
ATOM     50  C   UNL     1      -6.150  26.793  -2.228  1.00  0.00     0.324 C 
ATOM     51  O   UNL     1      -5.823  27.125  -3.342  1.00  0.00    -0.250 OA
BRANCH  50  52
ATOM     52  O   UNL     1      -7.232  27.263  -1.595  1.00  0.00    -0.464 OA
BRANCH  52  53
ATOM     53  C   UNL     1      -8.423  27.380  -2.426  1.00  0.00     0.239 CG0
ATOM     54  G   UNL     1      -9.242  28.516  -1.819  1.00  0.00     0.000 G0
ENDBRANCH  52  53
ENDBRANCH  50  52
ENDBRANCH  47  50
ENDBRANCH  41  43
ENDBRANCH  40  41
BRANCH  40  55
ATOM     55  N   UNL     1      -1.953  27.692  -0.601  1.00  0.00    -0.344 N 
ATOM     56  C   UNL     1      -1.489  27.316  -1.804  1.00  0.00     0.224 C 
ATOM     57  O   UNL     1      -0.673  26.410  -1.946  1.00  0.00    -0.275 OA
ATOM     58  H   UNL     1      -2.445  28.591  -0.511  1.00  0.00     0.164 HD
BRANCH  56  59
ATOM     59  C   UNL     1      -2.086  27.993  -2.972  1.00  0.00     0.081 C 
ATOM     60  C   UNL     1      -2.973  29.175  -2.695  1.00  0.00     0.018 C 
ATOM     61  C   UNL     1      -1.633  29.413  -3.287  1.00  0.00    -0.001 C 
ATOM     62  C   UNL     1      -1.489  29.886  -4.717  1.00  0.00     0.008 C 
ENDBRANCH  56  59
ENDBRANCH  40  55
ENDBRANCH   1  40
TORSDOF 7
ENDMDL
MODEL 13
REMARK VINA RESULT:    -4.367      4.495     10.592
REMARK INTER + INTRA:         -12.944
REMARK INTER:                  -8.646
REMARK INTRA:                  -4.298
REMARK UNBOUND:                -4.236
REMARK SMILES CCn1c(-c2cc(N3CCN(C)CC3)cnc2[C@H](C)OC)c2c3cc(ccc31)-c1csc(n1)C[C@H](NC(=O)[C@H]1C[C@@H]1C)C(=O)N1CCC[C@H](N1)C(=O)OCC(C)(C)C2
REMARK SMILES IDX 34 1 32 2 29 3 30 4 33 5 31 6 25 7 3 8 28 9 4 10 23 11 27 12
REMARK SMILES IDX 22 13 24 14 26 15 2 16 1 17 5 18 17 19 6 20 16 21 7 22 15 23
REMARK SMILES IDX 18 24 19 25 20 26 21 27 8 28 14 29 9 30 13 31 10 32 11 33
REMARK SMILES IDX 12 34 58 35 55 36 56 37 57 38 35 40 43 41 44 42 45 43 46 44
REMARK SMILES IDX 50 45 47 46 49 47 48 48 51 50 52 51 53 52 54 53 36 55 37 56
REMARK SMILES IDX 38 57 39 59 40 60 41 61 42 62
REMARK H PARENT 50 49 36 58
REMARK Flexibility Score:  160.900
ROOT
ATOM      1  C   UNL     1     -23.270  33.252   6.607  1.00  0.00     0.102 C 
ENDROOT
BRANCH   1   2
ATOM      2  C   UNL     1     -22.893  32.043   7.405  1.00  0.00     0.096 A 
ATOM      3  C   UNL     1     -22.671  29.909   7.940  1.00  0.00     0.081 A 
ATOM      4  C   UNL     1     -22.093  30.444   9.042  1.00  0.00     0.095 A 
ATOM      5  N   UNL     1     -23.196  30.830   7.040  1.00  0.00    -0.241 NA
ATOM      6  S   UNL     1     -21.982  32.142   8.871  1.00  0.00    -0.127 S 
BRANCH   3   7
ATOM      7  C   UNL     1     -22.803  28.483   7.587  1.00  0.00     0.002 A 
ATOM      8  N   UNL     1     -23.008  24.518   6.479  1.00  0.00    -0.340 N 
ATOM      9  C   UNL     1     -23.036  25.798   6.995  1.00  0.00     0.049 A 
ATOM     10  C   UNL     1     -22.452  24.558   5.212  1.00  0.00     0.054 A 
ATOM     11  C   UNL     1     -22.465  26.666   6.046  1.00  0.00     0.004 A 
ATOM     12  C   UNL     1     -23.475  26.241   8.239  1.00  0.00     0.027 A 
ATOM     13  C   UNL     1     -22.102  25.874   4.914  1.00  0.00    -0.014 A 
ATOM     14  C   UNL     1     -22.348  28.026   6.355  1.00  0.00     0.021 A 
ATOM     15  C   UNL     1     -23.354  27.588   8.503  1.00  0.00     0.012 A 
BRANCH   8  16
ATOM     16  C   UNL     1     -23.568  23.364   7.179  1.00  0.00     0.119 C 
ATOM     17  C   UNL     1     -25.068  23.436   7.170  1.00  0.00     0.027 C 
ENDBRANCH   8  16
BRANCH  10  18
ATOM     18  C   UNL     1     -22.341  23.394   4.327  1.00  0.00     0.025 A 
ATOM     19  C   UNL     1     -23.420  22.914   3.549  1.00  0.00     0.078 A 
ATOM     20  C   UNL     1     -21.120  22.728   4.265  1.00  0.00     0.039 A 
ATOM     21  N   UNL     1     -23.278  21.838   2.764  1.00  0.00    -0.256 NA
ATOM     22  C   UNL     1     -20.996  21.607   3.459  1.00  0.00     0.056 A 
ATOM     23  C   UNL     1     -22.094  21.202   2.716  1.00  0.00     0.137 A 
BRANCH  19  24
ATOM     24  C   UNL     1     -24.796  23.558   3.551  1.00  0.00     0.164 C 
ATOM     25  C   UNL     1     -25.842  22.507   3.249  1.00  0.00     0.045 C 
BRANCH  24  26
ATOM     26  O   UNL     1     -24.823  24.532   2.507  1.00  0.00    -0.375 OA
ATOM     27  C   UNL     1     -25.235  25.819   2.940  1.00  0.00     0.195 C 
ENDBRANCH  24  26
ENDBRANCH  19  24
BRANCH  22  28
ATOM     28  N   UNL     1     -19.788  20.938   3.361  1.00  0.00    -0.368 N 
ATOM     29  C   UNL     1     -18.527  21.530   3.833  1.00  0.00     0.132 C 
ATOM     30  C   UNL     1     -19.734  19.532   2.946  1.00  0.00     0.132 C 
ATOM     31  C   UNL     1     -17.322  21.053   3.052  1.00  0.00     0.105 C 
ATOM     32  C   UNL     1     -18.471  19.185   2.194  1.00  0.00     0.105 C 
ATOM     33  N   UNL     1     -17.299  19.596   2.959  1.00  0.00    -0.303 NA
ATOM     34  C   UNL     1     -16.075  19.129   2.307  1.00  0.00     0.105 C 
ENDBRANCH  22  28
ENDBRANCH  10  18
BRANCH  13  35
ATOM     35  C   UNL     1     -21.495  26.382   3.636  1.00  0.00     0.048 C 
BRANCH  35  36
ATOM     36  C   UNL     1     -19.959  26.381   3.595  1.00  0.00     0.003 CG0
ATOM     37  C   UNL     1     -19.543  25.259   2.643  1.00  0.00     0.015 C 
ATOM     38  C   UNL     1     -19.370  26.092   4.979  1.00  0.00     0.015 C 
ATOM     39  G   UNL     1     -19.420  27.716   3.089  1.00  0.00     0.000 G0
ENDBRANCH  35  36
ENDBRANCH  13  35
ENDBRANCH   3   7
ENDBRANCH   1   2
BRANCH   1  40
ATOM     40  C   UNL     1     -22.166  33.618   5.603  1.00  0.00     0.179 C 
BRANCH  40  41
ATOM     41  C   UNL     1     -22.764  33.692   4.208  1.00  0.00     0.259 C 
ATOM     42  O   UNL     1     -23.339  34.693   3.798  1.00  0.00    -0.271 OA
BRANCH  41  43
ATOM     43  N   UNL     1     -22.697  32.568   3.427  1.00  0.00    -0.275 N 
ATOM     44  C   UNL     1     -23.870  31.893   2.848  1.00  0.00     0.140 C 
ATOM     45  N   UNL     1     -21.437  31.977   3.170  1.00  0.00    -0.218 NA
ATOM     46  C   UNL     1     -23.943  30.515   3.476  1.00  0.00     0.025 C 
ATOM     47  C   UNL     1     -21.421  30.611   3.718  1.00  0.00     0.184 C 
ATOM     48  C   UNL     1     -22.624  29.790   3.227  1.00  0.00     0.035 C 
ATOM     49  H   UNL     1     -21.274  31.942   2.153  1.00  0.00     0.149 HD
BRANCH  47  50
ATOM     50  C   UNL     1     -20.132  29.940   3.314  1.00  0.00     0.324 C 
ATOM     51  O   UNL     1     -19.332  30.410   2.540  1.00  0.00    -0.250 OA
BRANCH  50  52
ATOM     52  O   UNL     1     -19.986  28.752   3.910  1.00  0.00    -0.464 OA
BRANCH  52  53
ATOM     53  C   UNL     1     -19.422  27.708   3.064  1.00  0.00     0.239 CG0
ATOM     54  G   UNL     1     -19.965  26.391   3.612  1.00  0.00     0.000 G0
ENDBRANCH  52  53
ENDBRANCH  50  52
ENDBRANCH  47  50
ENDBRANCH  41  43
ENDBRANCH  40  41
BRANCH  40  55
ATOM     55  N   UNL     1     -21.469  34.835   5.978  1.00  0.00    -0.344 N 
ATOM     56  C   UNL     1     -20.406  35.280   5.288  1.00  0.00     0.224 C 
ATOM     57  O   UNL     1     -19.796  34.577   4.487  1.00  0.00    -0.275 OA
ATOM     58  H   UNL     1     -21.797  35.371   6.794  1.00  0.00     0.164 HD
BRANCH  56  59
ATOM     59  C   UNL     1     -20.059  36.702   5.472  1.00  0.00     0.081 C 
ATOM     60  C   UNL     1     -20.667  37.404   6.654  1.00  0.00     0.018 C 
ATOM     61  C   UNL     1     -19.219  37.084   6.683  1.00  0.00    -0.001 C 
ATOM     62  C   UNL     1     -18.179  38.180   6.597  1.00  0.00     0.008 C 
ENDBRANCH  56  59
ENDBRANCH  40  55
ENDBRANCH   1  40
TORSDOF 7
ENDMDL
MODEL 14
REMARK VINA RESULT:    -4.358      8.213     12.188
REMARK INTER + INTRA:         -12.925
REMARK INTER:                  -8.600
REMARK INTRA:                  -4.325
REMARK UNBOUND:                -4.236
REMARK SMILES CCn1c(-c2cc(N3CCN(C)CC3)cnc2[C@H](C)OC)c2c3cc(ccc31)-c1csc(n1)C[C@H](NC(=O)[C@H]1C[C@@H]1C)C(=O)N1CCC[C@H](N1)C(=O)OCC(C)(C)C2
REMARK SMILES IDX 34 1 32 2 29 3 30 4 33 5 31 6 25 7 3 8 28 9 4 10 23 11 27 12
REMARK SMILES IDX 22 13 24 14 26 15 2 16 1 17 5 18 17 19 6 20 16 21 7 22 15 23
REMARK SMILES IDX 18 24 19 25 20 26 21 27 8 28 14 29 9 30 13 31 10 32 11 33
REMARK SMILES IDX 12 34 58 35 55 36 56 37 57 38 35 40 43 41 44 42 45 43 46 44
REMARK SMILES IDX 50 45 47 46 49 47 48 48 51 50 52 51 53 52 54 53 36 55 37 56
REMARK SMILES IDX 38 57 39 59 40 60 41 61 42 62
REMARK H PARENT 50 49 36 58
REMARK Flexibility Score:  160.900
ROOT
ATOM      1  C   UNL     1      -9.142  31.959  -1.758  1.00  0.00     0.102 C 
ENDROOT
BRANCH   1   2
ATOM      2  C   UNL     1      -9.405  31.295  -3.074  1.00  0.00     0.096 A 
ATOM      3  C   UNL     1     -10.532  30.577  -4.835  1.00  0.00     0.081 A 
ATOM      4  C   UNL     1      -9.308  30.120  -5.192  1.00  0.00     0.095 A 
ATOM      5  N   UNL     1     -10.597  31.182  -3.585  1.00  0.00    -0.241 NA
ATOM      6  S   UNL     1      -8.140  30.649  -4.061  1.00  0.00    -0.127 S 
BRANCH   3   7
ATOM      7  C   UNL     1     -11.787  30.510  -5.609  1.00  0.00     0.002 A 
ATOM      8  N   UNL     1     -15.395  30.373  -7.598  1.00  0.00    -0.340 N 
ATOM      9  C   UNL     1     -14.110  30.441  -7.095  1.00  0.00     0.049 A 
ATOM     10  C   UNL     1     -16.260  30.025  -6.575  1.00  0.00     0.054 A 
ATOM     11  C   UNL     1     -14.164  30.153  -5.718  1.00  0.00     0.004 A 
ATOM     12  C   UNL     1     -12.925  30.781  -7.738  1.00  0.00     0.027 A 
ATOM     13  C   UNL     1     -15.529  29.883  -5.396  1.00  0.00    -0.014 A 
ATOM     14  C   UNL     1     -12.981  30.192  -4.971  1.00  0.00     0.021 A 
ATOM     15  C   UNL     1     -11.779  30.799  -6.973  1.00  0.00     0.012 A 
BRANCH   8  16
ATOM     16  C   UNL     1     -15.707  30.569  -9.012  1.00  0.00     0.119 C 
ATOM     17  C   UNL     1     -15.375  29.327  -9.788  1.00  0.00     0.027 C 
ENDBRANCH   8  16
BRANCH  10  18
ATOM     18  C   UNL     1     -17.692  29.776  -6.760  1.00  0.00     0.025 A 
ATOM     19  C   UNL     1     -18.213  28.513  -7.124  1.00  0.00     0.078 A 
ATOM     20  C   UNL     1     -18.573  30.840  -6.581  1.00  0.00     0.039 A 
ATOM     21  N   UNL     1     -19.529  28.334  -7.296  1.00  0.00    -0.256 NA
ATOM     22  C   UNL     1     -19.930  30.640  -6.779  1.00  0.00     0.056 A 
ATOM     23  C   UNL     1     -20.368  29.371  -7.123  1.00  0.00     0.137 A 
BRANCH  19  24
ATOM     24  C   UNL     1     -17.341  27.291  -7.355  1.00  0.00     0.164 C 
ATOM     25  C   UNL     1     -17.700  26.661  -8.683  1.00  0.00     0.045 C 
BRANCH  24  26
ATOM     26  O   UNL     1     -17.625  26.351  -6.319  1.00  0.00    -0.375 OA
ATOM     27  C   UNL     1     -18.550  25.344  -6.702  1.00  0.00     0.195 C 
ENDBRANCH  24  26
ENDBRANCH  19  24
BRANCH  22  28
ATOM     28  N   UNL     1     -20.832  31.673  -6.587  1.00  0.00    -0.368 N 
ATOM     29  C   UNL     1     -21.279  32.080  -5.246  1.00  0.00     0.132 C 
ATOM     30  C   UNL     1     -21.249  32.530  -7.702  1.00  0.00     0.132 C 
ATOM     31  C   UNL     1     -22.682  32.645  -5.237  1.00  0.00     0.105 C 
ATOM     32  C   UNL     1     -22.662  33.043  -7.558  1.00  0.00     0.105 C 
ATOM     33  N   UNL     1     -22.839  33.678  -6.258  1.00  0.00    -0.303 NA
ATOM     34  C   UNL     1     -24.157  34.307  -6.172  1.00  0.00     0.105 C 
ENDBRANCH  22  28
ENDBRANCH  10  18
BRANCH  13  35
ATOM     35  C   UNL     1     -16.058  29.486  -4.046  1.00  0.00     0.048 C 
BRANCH  35  36
ATOM     36  C   UNL     1     -16.371  30.652  -3.096  1.00  0.00     0.003 CG0
ATOM     37  C   UNL     1     -17.772  30.401  -2.536  1.00  0.00     0.015 C 
ATOM     38  C   UNL     1     -16.377  31.988  -3.845  1.00  0.00     0.015 C 
ATOM     39  G   UNL     1     -15.362  30.721  -1.955  1.00  0.00     0.000 G0
ENDBRANCH  35  36
ENDBRANCH  13  35
ENDBRANCH   3   7
ENDBRANCH   1   2
BRANCH   1  40
ATOM     40  C   UNL     1     -10.392  31.932  -0.866  1.00  0.00     0.179 C 
BRANCH  40  41
ATOM     41  C   UNL     1     -10.255  30.814   0.154  1.00  0.00     0.259 C 
ATOM     42  O   UNL     1      -9.468  30.881   1.091  1.00  0.00    -0.271 OA
BRANCH  41  43
ATOM     43  N   UNL     1     -11.001  29.681  -0.040  1.00  0.00    -0.275 N 
ATOM     44  C   UNL     1     -10.512  28.480  -0.736  1.00  0.00     0.140 C 
ATOM     45  N   UNL     1     -12.338  29.646   0.419  1.00  0.00    -0.218 NA
ATOM     46  C   UNL     1     -11.355  28.318  -1.986  1.00  0.00     0.025 C 
ATOM     47  C   UNL     1     -13.240  29.457  -0.730  1.00  0.00     0.184 C 
ATOM     48  C   UNL     1     -12.824  28.248  -1.583  1.00  0.00     0.035 C 
ATOM     49  H   UNL     1     -12.456  28.865   1.080  1.00  0.00     0.149 HD
BRANCH  47  50
ATOM     50  C   UNL     1     -14.647  29.277  -0.218  1.00  0.00     0.324 C 
ATOM     51  O   UNL     1     -14.927  28.969   0.916  1.00  0.00    -0.250 OA
BRANCH  50  52
ATOM     52  O   UNL     1     -15.553  29.488  -1.180  1.00  0.00    -0.464 OA
BRANCH  52  53
ATOM     53  C   UNL     1     -15.369  30.722  -1.933  1.00  0.00     0.239 CG0
ATOM     54  G   UNL     1     -16.363  30.654  -3.089  1.00  0.00     0.000 G0
ENDBRANCH  52  53
ENDBRANCH  50  52
ENDBRANCH  47  50
ENDBRANCH  41  43
ENDBRANCH  40  41
BRANCH  40  55
ATOM     55  N   UNL     1     -10.652  33.222  -0.251  1.00  0.00    -0.344 N 
ATOM     56  C   UNL     1     -11.883  33.575   0.152  1.00  0.00     0.224 C 
ATOM     57  O   UNL     1     -12.893  32.974  -0.204  1.00  0.00    -0.275 OA
ATOM     58  H   UNL     1      -9.873  33.882  -0.121  1.00  0.00     0.164 HD
BRANCH  56  59
ATOM     59  C   UNL     1     -11.957  34.678   1.129  1.00  0.00     0.081 C 
ATOM     60  C   UNL     1     -10.905  35.747   1.030  1.00  0.00     0.018 C 
ATOM     61  C   UNL     1     -12.292  36.071   0.614  1.00  0.00    -0.001 C 
ATOM     62  C   UNL     1     -13.146  37.019   1.428  1.00  0.00     0.008 C 
ENDBRANCH  56  59
ENDBRANCH  40  55
ENDBRANCH   1  40
TORSDOF 7
ENDMDL
MODEL 15
REMARK VINA RESULT:    -4.354     11.527     15.919
REMARK INTER + INTRA:         -12.918
REMARK INTER:                  -8.424
REMARK INTRA:                  -4.494
REMARK UNBOUND:                -4.236
REMARK SMILES CCn1c(-c2cc(N3CCN(C)CC3)cnc2[C@H](C)OC)c2c3cc(ccc31)-c1csc(n1)C[C@H](NC(=O)[C@H]1C[C@@H]1C)C(=O)N1CCC[C@H](N1)C(=O)OCC(C)(C)C2
REMARK SMILES IDX 34 1 32 2 29 3 30 4 33 5 31 6 25 7 3 8 28 9 4 10 23 11 27 12
REMARK SMILES IDX 22 13 24 14 26 15 2 16 1 17 5 18 17 19 6 20 16 21 7 22 15 23
REMARK SMILES IDX 18 24 19 25 20 26 21 27 8 28 14 29 9 30 13 31 10 32 11 33
REMARK SMILES IDX 12 34 58 35 55 36 56 37 57 38 35 40 43 41 44 42 45 43 46 44
REMARK SMILES IDX 50 45 47 46 49 47 48 48 51 50 52 51 53 52 54 53 36 55 37 56
REMARK SMILES IDX 38 57 39 59 40 60 41 61 42 62
REMARK H PARENT 50 49 36 58
REMARK Flexibility Score:  160.900
ROOT
ATOM      1  C   UNL     1      -8.882  27.422  -0.842  1.00  0.00     0.102 C 
ENDROOT
BRANCH   1   2
ATOM      2  C   UNL     1      -9.749  28.603  -0.538  1.00  0.00     0.096 A 
ATOM      3  C   UNL     1     -10.307  30.648   0.092  1.00  0.00     0.081 A 
ATOM      4  C   UNL     1     -11.548  30.193  -0.201  1.00  0.00     0.095 A 
ATOM      5  N   UNL     1      -9.288  29.709  -0.029  1.00  0.00    -0.241 NA
ATOM      6  S   UNL     1     -11.446  28.623  -0.870  1.00  0.00    -0.127 S 
BRANCH   3   7
ATOM      7  C   UNL     1      -9.915  32.006   0.516  1.00  0.00     0.002 A 
ATOM      8  N   UNL     1      -8.623  35.738   1.697  1.00  0.00    -0.340 N 
ATOM      9  C   UNL     1      -9.207  34.570   1.247  1.00  0.00     0.049 A 
ATOM     10  C   UNL     1      -7.449  35.425   2.361  1.00  0.00     0.054 A 
ATOM     11  C   UNL     1      -8.376  33.496   1.613  1.00  0.00     0.004 A 
ATOM     12  C   UNL     1     -10.373  34.392   0.509  1.00  0.00     0.027 A 
ATOM     13  C   UNL     1      -7.265  34.044   2.325  1.00  0.00    -0.014 A 
ATOM     14  C   UNL     1      -8.741  32.198   1.236  1.00  0.00     0.021 A 
ATOM     15  C   UNL     1     -10.705  33.100   0.166  1.00  0.00     0.012 A 
BRANCH   8  16
ATOM     16  C   UNL     1      -9.241  37.052   1.534  1.00  0.00     0.119 C 
ATOM     17  C   UNL     1     -10.175  37.325   2.679  1.00  0.00     0.027 C 
ENDBRANCH   8  16
BRANCH  10  18
ATOM     18  C   UNL     1      -6.606  36.409   3.046  1.00  0.00     0.025 A 
ATOM     19  C   UNL     1      -5.566  37.115   2.399  1.00  0.00     0.078 A 
ATOM     20  C   UNL     1      -6.837  36.644   4.399  1.00  0.00     0.039 A 
ATOM     21  N   UNL     1      -4.811  37.996   3.069  1.00  0.00    -0.256 NA
ATOM     22  C   UNL     1      -6.036  37.548   5.080  1.00  0.00     0.056 A 
ATOM     23  C   UNL     1      -5.043  38.211   4.376  1.00  0.00     0.137 A 
BRANCH  19  24
ATOM     24  C   UNL     1      -5.222  36.926   0.932  1.00  0.00     0.164 C 
ATOM     25  C   UNL     1      -3.823  37.440   0.673  1.00  0.00     0.045 C 
BRANCH  24  26
ATOM     26  O   UNL     1      -6.137  37.709   0.166  1.00  0.00    -0.375 OA
ATOM     27  C   UNL     1      -6.187  37.348  -1.206  1.00  0.00     0.195 C 
ENDBRANCH  24  26
ENDBRANCH  19  24
BRANCH  22  28
ATOM     28  N   UNL     1      -6.256  37.818   6.419  1.00  0.00    -0.368 N 
ATOM     29  C   UNL     1      -5.151  37.934   7.383  1.00  0.00     0.132 C 
ATOM     30  C   UNL     1      -7.591  38.180   6.909  1.00  0.00     0.132 C 
ATOM     31  C   UNL     1      -5.543  37.518   8.784  1.00  0.00     0.105 C 
ATOM     32  C   UNL     1      -7.844  37.724   8.326  1.00  0.00     0.105 C 
ATOM     33  N   UNL     1      -6.774  38.183   9.204  1.00  0.00    -0.303 NA
ATOM     34  C   UNL     1      -7.090  37.874  10.599  1.00  0.00     0.105 C 
ENDBRANCH  22  28
ENDBRANCH  10  18
BRANCH  13  35
ATOM     35  C   UNL     1      -6.139  33.264   2.944  1.00  0.00     0.048 C 
BRANCH  35  36
ATOM     36  C   UNL     1      -5.023  32.844   1.977  1.00  0.00     0.003 CG0
ATOM     37  C   UNL     1      -3.725  33.454   2.509  1.00  0.00     0.015 C 
ATOM     38  C   UNL     1      -5.278  33.391   0.569  1.00  0.00     0.015 C 
ATOM     39  G   UNL     1      -4.892  31.326   1.909  1.00  0.00     0.000 G0
ENDBRANCH  35  36
ENDBRANCH  13  35
ENDBRANCH   3   7
ENDBRANCH   1   2
BRANCH   1  40
ATOM     40  C   UNL     1      -7.418  27.847  -1.037  1.00  0.00     0.179 C 
BRANCH  40  41
ATOM     41  C   UNL     1      -6.517  26.638  -0.850  1.00  0.00     0.259 C 
ATOM     42  O   UNL     1      -6.800  25.539  -1.311  1.00  0.00    -0.271 OA
BRANCH  41  43
ATOM     43  N   UNL     1      -5.391  26.796  -0.086  1.00  0.00    -0.275 N 
ATOM     44  C   UNL     1      -4.998  25.887   1.003  1.00  0.00     0.140 C 
ATOM     45  N   UNL     1      -4.551  27.911  -0.312  1.00  0.00    -0.218 NA
ATOM     46  C   UNL     1      -5.048  26.688   2.289  1.00  0.00     0.025 C 
ATOM     47  C   UNL     1      -4.508  28.741   0.903  1.00  0.00     0.184 C 
ATOM     48  C   UNL     1      -4.145  27.909   2.144  1.00  0.00     0.035 C 
ATOM     49  H   UNL     1      -3.601  27.586  -0.541  1.00  0.00     0.149 HD
BRANCH  47  50
ATOM     50  C   UNL     1      -3.500  29.845   0.702  1.00  0.00     0.324 C 
ATOM     51  O   UNL     1      -2.315  29.668   0.552  1.00  0.00    -0.250 OA
BRANCH  50  52
ATOM     52  O   UNL     1      -4.079  31.052   0.722  1.00  0.00    -0.464 OA
BRANCH  52  53
ATOM     53  C   UNL     1      -4.901  31.317   1.895  1.00  0.00     0.239 CG0
ATOM     54  G   UNL     1      -5.035  32.835   1.974  1.00  0.00     0.000 G0
ENDBRANCH  52  53
ENDBRANCH  50  52
ENDBRANCH  47  50
ENDBRANCH  41  43
ENDBRANCH  40  41
BRANCH  40  55
ATOM     55  N   UNL     1      -7.207  28.511  -2.312  1.00  0.00    -0.344 N 
ATOM     56  C   UNL     1      -6.583  29.697  -2.393  1.00  0.00     0.224 C 
ATOM     57  O   UNL     1      -6.395  30.415  -1.415  1.00  0.00    -0.275 OA
ATOM     58  H   UNL     1      -7.545  28.060  -3.174  1.00  0.00     0.164 HD
BRANCH  56  59
ATOM     59  C   UNL     1      -6.044  30.059  -3.719  1.00  0.00     0.081 C 
ATOM     60  C   UNL     1      -6.482  29.217  -4.885  1.00  0.00     0.018 C 
ATOM     61  C   UNL     1      -7.012  30.597  -4.764  1.00  0.00    -0.001 C 
ATOM     62  C   UNL     1      -6.590  31.680  -5.734  1.00  0.00     0.008 C 
ENDBRANCH  56  59
ENDBRANCH  40  55
ENDBRANCH   1  40
TORSDOF 7
ENDMDL
MODEL 16
REMARK VINA RESULT:    -4.335      2.254      4.166
REMARK INTER + INTRA:         -12.879
REMARK INTER:                  -8.891
REMARK INTRA:                  -3.988
REMARK UNBOUND:                -4.236
REMARK SMILES CCn1c(-c2cc(N3CCN(C)CC3)cnc2[C@H](C)OC)c2c3cc(ccc31)-c1csc(n1)C[C@H](NC(=O)[C@H]1C[C@@H]1C)C(=O)N1CCC[C@H](N1)C(=O)OCC(C)(C)C2
REMARK SMILES IDX 34 1 32 2 29 3 30 4 33 5 31 6 25 7 3 8 28 9 4 10 23 11 27 12
REMARK SMILES IDX 22 13 24 14 26 15 2 16 1 17 5 18 17 19 6 20 16 21 7 22 15 23
REMARK SMILES IDX 18 24 19 25 20 26 21 27 8 28 14 29 9 30 13 31 10 32 11 33
REMARK SMILES IDX 12 34 58 35 55 36 56 37 57 38 35 40 43 41 44 42 45 43 46 44
REMARK SMILES IDX 50 45 47 46 49 47 48 48 51 50 52 51 53 52 54 53 36 55 37 56
REMARK SMILES IDX 38 57 39 59 40 60 41 61 42 62
REMARK H PARENT 50 49 36 58
REMARK Flexibility Score:  160.900
ROOT
ATOM      1  C   UNL     1     -22.985  21.912   1.711  1.00  0.00     0.102 C 
ENDROOT
BRANCH   1   2
ATOM      2  C   UNL     1     -23.368  23.130   0.930  1.00  0.00     0.096 A 
ATOM      3  C   UNL     1     -23.141  25.038  -0.163  1.00  0.00     0.081 A 
ATOM      4  C   UNL     1     -24.481  24.899  -0.297  1.00  0.00     0.095 A 
ATOM      5  N   UNL     1     -22.519  24.061   0.606  1.00  0.00    -0.241 NA
ATOM      6  S   UNL     1     -24.975  23.395   0.349  1.00  0.00    -0.127 S 
BRANCH   3   7
ATOM      7  C   UNL     1     -22.276  26.088  -0.733  1.00  0.00     0.002 A 
ATOM      8  N   UNL     1     -19.748  29.019  -2.151  1.00  0.00    -0.340 N 
ATOM      9  C   UNL     1     -20.636  28.006  -1.850  1.00  0.00     0.049 A 
ATOM     10  C   UNL     1     -19.345  29.628  -0.975  1.00  0.00     0.054 A 
ATOM     11  C   UNL     1     -20.783  27.955  -0.451  1.00  0.00     0.004 A 
ATOM     12  C   UNL     1     -21.276  27.108  -2.699  1.00  0.00     0.027 A 
ATOM     13  C   UNL     1     -19.967  28.990   0.098  1.00  0.00    -0.014 A 
ATOM     14  C   UNL     1     -21.615  26.977   0.107  1.00  0.00     0.021 A 
ATOM     15  C   UNL     1     -22.094  26.167  -2.113  1.00  0.00     0.012 A 
BRANCH   8  16
ATOM     16  C   UNL     1     -19.396  29.388  -3.521  1.00  0.00     0.119 C 
ATOM     17  C   UNL     1     -20.262  30.525  -3.984  1.00  0.00     0.027 C 
ENDBRANCH   8  16
BRANCH  10  18
ATOM     18  C   UNL     1     -18.469  30.801  -0.916  1.00  0.00     0.025 A 
ATOM     19  C   UNL     1     -17.059  30.713  -0.972  1.00  0.00     0.078 A 
ATOM     20  C   UNL     1     -19.058  32.057  -0.785  1.00  0.00     0.039 A 
ATOM     21  N   UNL     1     -16.296  31.811  -0.901  1.00  0.00    -0.256 NA
ATOM     22  C   UNL     1     -18.253  33.181  -0.697  1.00  0.00     0.056 A 
ATOM     23  C   UNL     1     -16.878  33.017  -0.771  1.00  0.00     0.137 A 
BRANCH  19  24
ATOM     24  C   UNL     1     -16.315  29.395  -1.102  1.00  0.00     0.164 C 
ATOM     25  C   UNL     1     -14.962  29.514  -0.435  1.00  0.00     0.045 C 
BRANCH  24  26
ATOM     26  O   UNL     1     -16.111  29.146  -2.493  1.00  0.00    -0.375 OA
ATOM     27  C   UNL     1     -14.752  28.923  -2.839  1.00  0.00     0.195 C 
ENDBRANCH  24  26
ENDBRANCH  19  24
BRANCH  22  28
ATOM     28  N   UNL     1     -18.811  34.443  -0.588  1.00  0.00    -0.368 N 
ATOM     29  C   UNL     1     -18.380  35.400   0.443  1.00  0.00     0.132 C 
ATOM     30  C   UNL     1     -19.733  34.953  -1.608  1.00  0.00     0.132 C 
ATOM     31  C   UNL     1     -19.483  36.342   0.874  1.00  0.00     0.105 C 
ATOM     32  C   UNL     1     -20.771  35.897  -1.048  1.00  0.00     0.105 C 
ATOM     33  N   UNL     1     -20.127  36.959  -0.283  1.00  0.00    -0.303 NA
ATOM     34  C   UNL     1     -21.113  37.957   0.134  1.00  0.00     0.105 C 
ENDBRANCH  22  28
ENDBRANCH  10  18
BRANCH  13  35
ATOM     35  C   UNL     1     -19.841  29.340   1.554  1.00  0.00     0.048 C 
BRANCH  35  36
ATOM     36  C   UNL     1     -18.697  28.638   2.300  1.00  0.00     0.003 CG0
ATOM     37  C   UNL     1     -17.568  29.660   2.441  1.00  0.00     0.015 C 
ATOM     38  C   UNL     1     -18.173  27.438   1.505  1.00  0.00     0.015 C 
ATOM     39  G   UNL     1     -19.144  28.167   3.681  1.00  0.00     0.000 G0
ENDBRANCH  35  36
ENDBRANCH  13  35
ENDBRANCH   3   7
ENDBRANCH   1   2
BRANCH   1  40
ATOM     40  C   UNL     1     -21.948  22.252   2.792  1.00  0.00     0.179 C 
BRANCH  40  41
ATOM     41  C   UNL     1     -22.632  22.286   4.148  1.00  0.00     0.259 C 
ATOM     42  O   UNL     1     -23.355  21.376   4.535  1.00  0.00    -0.271 OA
BRANCH  41  43
ATOM     43  N   UNL     1     -22.467  23.409   4.916  1.00  0.00    -0.275 N 
ATOM     44  C   UNL     1     -23.529  24.010   5.738  1.00  0.00     0.140 C 
ATOM     45  N   UNL     1     -21.218  24.072   4.914  1.00  0.00    -0.218 NA
ATOM     46  C   UNL     1     -23.812  25.383   5.163  1.00  0.00     0.025 C 
ATOM     47  C   UNL     1     -21.396  25.439   4.397  1.00  0.00     0.184 C 
ATOM     48  C   UNL     1     -22.514  26.185   5.142  1.00  0.00     0.035 C 
ATOM     49  H   UNL     1     -20.847  24.113   5.874  1.00  0.00     0.149 HD
BRANCH  47  50
ATOM     50  C   UNL     1     -20.091  26.184   4.533  1.00  0.00     0.324 C 
ATOM     51  O   UNL     1     -19.387  26.153   5.514  1.00  0.00    -0.250 OA
BRANCH  50  52
ATOM     52  O   UNL     1     -19.812  26.896   3.435  1.00  0.00    -0.464 OA
BRANCH  52  53
ATOM     53  C   UNL     1     -19.149  28.169   3.683  1.00  0.00     0.239 CG0
ATOM     54  G   UNL     1     -18.687  28.670   2.318  1.00  0.00     0.000 G0
ENDBRANCH  52  53
ENDBRANCH  50  52
ENDBRANCH  47  50
ENDBRANCH  41  43
ENDBRANCH  40  41
BRANCH  40  55
ATOM     55  N   UNL     1     -20.810  21.350   2.761  1.00  0.00    -0.344 N 
ATOM     56  C   UNL     1     -19.619  21.735   2.272  1.00  0.00     0.224 C 
ATOM     57  O   UNL     1     -19.480  22.745   1.589  1.00  0.00    -0.275 OA
ATOM     58  H   UNL     1     -20.919  20.392   3.122  1.00  0.00     0.164 HD
BRANCH  56  59
ATOM     59  C   UNL     1     -18.456  20.923   2.680  1.00  0.00     0.081 C 
ATOM     60  C   UNL     1     -18.473  19.469   2.298  1.00  0.00     0.018 C 
ATOM     61  C   UNL     1     -17.542  20.382   1.589  1.00  0.00    -0.001 C 
ATOM     62  C   UNL     1     -16.046  20.285   1.801  1.00  0.00     0.008 C 
ENDBRANCH  56  59
ENDBRANCH  40  55
ENDBRANCH   1  40
TORSDOF 7
ENDMDL
MODEL 17
REMARK VINA RESULT:    -4.268     10.102     16.074
REMARK INTER + INTRA:         -12.746
REMARK INTER:                  -8.654
REMARK INTRA:                  -4.092
REMARK UNBOUND:                -4.236
REMARK SMILES CCn1c(-c2cc(N3CCN(C)CC3)cnc2[C@H](C)OC)c2c3cc(ccc31)-c1csc(n1)C[C@H](NC(=O)[C@H]1C[C@@H]1C)C(=O)N1CCC[C@H](N1)C(=O)OCC(C)(C)C2
REMARK SMILES IDX 34 1 32 2 29 3 30 4 33 5 31 6 25 7 3 8 28 9 4 10 23 11 27 12
REMARK SMILES IDX 22 13 24 14 26 15 2 16 1 17 5 18 17 19 6 20 16 21 7 22 15 23
REMARK SMILES IDX 18 24 19 25 20 26 21 27 8 28 14 29 9 30 13 31 10 32 11 33
REMARK SMILES IDX 12 34 58 35 55 36 56 37 57 38 35 40 43 41 44 42 45 43 46 44
REMARK SMILES IDX 50 45 47 46 49 47 48 48 51 50 52 51 53 52 54 53 36 55 37 56
REMARK SMILES IDX 38 57 39 59 40 60 41 61 42 62
REMARK H PARENT 50 49 36 58
REMARK Flexibility Score:  160.900
ROOT
ATOM      1  C   UNL     1      -2.229  23.010   2.168  1.00  0.00     0.102 C 
ENDROOT
BRANCH   1   2
ATOM      2  C   UNL     1      -1.955  24.462   1.926  1.00  0.00     0.096 A 
ATOM      3  C   UNL     1      -2.320  26.563   1.343  1.00  0.00     0.081 A 
ATOM      4  C   UNL     1      -1.025  26.690   1.714  1.00  0.00     0.095 A 
ATOM      5  N   UNL     1      -2.826  25.268   1.393  1.00  0.00    -0.241 NA
ATOM      6  S   UNL     1      -0.462  25.214   2.368  1.00  0.00    -0.127 S 
BRANCH   3   7
ATOM      7  C   UNL     1      -3.246  27.623   0.899  1.00  0.00     0.002 A 
ATOM      8  N   UNL     1      -5.958  30.437  -0.411  1.00  0.00    -0.340 N 
ATOM      9  C   UNL     1      -4.987  29.623   0.139  1.00  0.00     0.049 A 
ATOM     10  C   UNL     1      -6.546  29.777  -1.476  1.00  0.00     0.054 A 
ATOM     11  C   UNL     1      -4.975  28.412  -0.577  1.00  0.00     0.004 A 
ATOM     12  C   UNL     1      -4.162  29.848   1.236  1.00  0.00     0.027 A 
ATOM     13  C   UNL     1      -5.962  28.518  -1.605  1.00  0.00    -0.014 A 
ATOM     14  C   UNL     1      -4.090  27.401  -0.184  1.00  0.00     0.021 A 
ATOM     15  C   UNL     1      -3.297  28.834   1.587  1.00  0.00     0.012 A 
BRANCH   8  16
ATOM     16  C   UNL     1      -6.213  31.798   0.055  1.00  0.00     0.119 C 
ATOM     17  C   UNL     1      -7.495  31.842   0.835  1.00  0.00     0.027 C 
ENDBRANCH   8  16
BRANCH  10  18
ATOM     18  C   UNL     1      -7.560  30.372  -2.352  1.00  0.00     0.025 A 
ATOM     19  C   UNL     1      -7.240  31.252  -3.412  1.00  0.00     0.078 A 
ATOM     20  C   UNL     1      -8.897  30.065  -2.115  1.00  0.00     0.039 A 
ATOM     21  N   UNL     1      -8.200  31.783  -4.180  1.00  0.00    -0.256 NA
ATOM     22  C   UNL     1      -9.878  30.637  -2.910  1.00  0.00     0.056 A 
ATOM     23  C   UNL     1      -9.487  31.480  -3.938  1.00  0.00     0.137 A 
BRANCH  19  24
ATOM     24  C   UNL     1      -5.816  31.662  -3.749  1.00  0.00     0.164 C 
ATOM     25  C   UNL     1      -5.612  33.116  -3.382  1.00  0.00     0.045 C 
BRANCH  24  26
ATOM     26  O   UNL     1      -5.646  31.527  -5.160  1.00  0.00    -0.375 OA
ATOM     27  C   UNL     1      -5.525  32.766  -5.841  1.00  0.00     0.195 C 
ENDBRANCH  24  26
ENDBRANCH  19  24
BRANCH  22  28
ATOM     28  N   UNL     1     -11.214  30.333  -2.712  1.00  0.00    -0.368 N 
ATOM     29  C   UNL     1     -12.238  31.378  -2.563  1.00  0.00     0.132 C 
ATOM     30  C   UNL     1     -11.700  28.953  -2.820  1.00  0.00     0.132 C 
ATOM     31  C   UNL     1     -13.397  30.950  -1.689  1.00  0.00     0.105 C 
ATOM     32  C   UNL     1     -12.870  28.665  -1.910  1.00  0.00     0.105 C 
ATOM     33  N   UNL     1     -13.922  29.654  -2.111  1.00  0.00    -0.303 NA
ATOM     34  C   UNL     1     -15.116  29.295  -1.344  1.00  0.00     0.105 C 
ENDBRANCH  22  28
ENDBRANCH  10  18
BRANCH  13  35
ATOM     35  C   UNL     1      -6.273  27.477  -2.643  1.00  0.00     0.048 C 
BRANCH  35  36
ATOM     36  C   UNL     1      -5.375  27.504  -3.889  1.00  0.00     0.003 CG0
ATOM     37  C   UNL     1      -4.228  28.470  -3.586  1.00  0.00     0.015 C 
ATOM     38  C   UNL     1      -6.140  28.023  -5.110  1.00  0.00     0.015 C 
ATOM     39  G   UNL     1      -4.817  26.118  -4.198  1.00  0.00     0.000 G0
ENDBRANCH  35  36
ENDBRANCH  13  35
ENDBRANCH   3   7
ENDBRANCH   1   2
BRANCH   1  40
ATOM     40  C   UNL     1      -2.123  22.203   0.865  1.00  0.00     0.179 C 
BRANCH  40  41
ATOM     41  C   UNL     1      -3.515  21.790   0.418  1.00  0.00     0.259 C 
ATOM     42  O   UNL     1      -3.856  20.616   0.352  1.00  0.00    -0.271 OA
BRANCH  41  43
ATOM     43  N   UNL     1      -4.376  22.781   0.022  1.00  0.00    -0.275 N 
ATOM     44  C   UNL     1      -5.531  23.235   0.812  1.00  0.00     0.140 C 
ATOM     45  N   UNL     1      -4.186  23.402  -1.235  1.00  0.00    -0.218 NA
ATOM     46  C   UNL     1      -6.774  22.899   0.013  1.00  0.00     0.025 C 
ATOM     47  C   UNL     1      -5.367  23.157  -2.080  1.00  0.00     0.184 C 
ATOM     48  C   UNL     1      -6.667  23.552  -1.362  1.00  0.00     0.035 C 
ATOM     49  H   UNL     1      -4.061  24.416  -1.103  1.00  0.00     0.149 HD
BRANCH  47  50
ATOM     50  C   UNL     1      -5.219  23.941  -3.360  1.00  0.00     0.324 C 
ATOM     51  O   UNL     1      -4.953  23.452  -4.432  1.00  0.00    -0.250 OA
BRANCH  50  52
ATOM     52  O   UNL     1      -5.407  25.251  -3.162  1.00  0.00    -0.464 OA
BRANCH  52  53
ATOM     53  C   UNL     1      -4.805  26.115  -4.168  1.00  0.00     0.239 CG0
ATOM     54  G   UNL     1      -5.359  27.512  -3.901  1.00  0.00     0.000 G0
ENDBRANCH  52  53
ENDBRANCH  50  52
ENDBRANCH  47  50
ENDBRANCH  41  43
ENDBRANCH  40  41
BRANCH  40  55
ATOM     55  N   UNL     1      -1.394  22.922  -0.165  1.00  0.00    -0.344 N 
ATOM     56  C   UNL     1      -0.888  22.294  -1.239  1.00  0.00     0.224 C 
ATOM     57  O   UNL     1      -0.766  21.073  -1.295  1.00  0.00    -0.275 OA
ATOM     58  H   UNL     1      -1.262  23.939  -0.070  1.00  0.00     0.164 HD
BRANCH  56  59
ATOM     59  C   UNL     1      -0.567  23.146  -2.400  1.00  0.00     0.081 C 
ATOM     60  C   UNL     1      -1.434  22.992  -3.619  1.00  0.00     0.018 C 
ATOM     61  C   UNL     1      -1.568  24.222  -2.799  1.00  0.00    -0.001 C 
ATOM     62  C   UNL     1      -1.103  25.562  -3.327  1.00  0.00     0.008 C 
ENDBRANCH  56  59
ENDBRANCH  40  55
ENDBRANCH   1  40
TORSDOF 7
ENDMDL
MODEL 18
REMARK VINA RESULT:    -4.267      8.359     14.670
REMARK INTER + INTRA:         -12.745
REMARK INTER:                  -8.163
REMARK INTRA:                  -4.582
REMARK UNBOUND:                -4.236
REMARK SMILES CCn1c(-c2cc(N3CCN(C)CC3)cnc2[C@H](C)OC)c2c3cc(ccc31)-c1csc(n1)C[C@H](NC(=O)[C@H]1C[C@@H]1C)C(=O)N1CCC[C@H](N1)C(=O)OCC(C)(C)C2
REMARK SMILES IDX 34 1 32 2 29 3 30 4 33 5 31 6 25 7 3 8 28 9 4 10 23 11 27 12
REMARK SMILES IDX 22 13 24 14 26 15 2 16 1 17 5 18 17 19 6 20 16 21 7 22 15 23
REMARK SMILES IDX 18 24 19 25 20 26 21 27 8 28 14 29 9 30 13 31 10 32 11 33
REMARK SMILES IDX 12 34 58 35 55 36 56 37 57 38 35 40 43 41 44 42 45 43 46 44
REMARK SMILES IDX 50 45 47 46 49 47 48 48 51 50 52 51 53 52 54 53 36 55 37 56
REMARK SMILES IDX 38 57 39 59 40 60 41 61 42 62
REMARK H PARENT 50 49 36 58
REMARK Flexibility Score:  160.900
ROOT
ATOM      1  C   UNL     1     -12.625  28.120  -2.426  1.00  0.00     0.102 C 
ENDROOT
BRANCH   1   2
ATOM      2  C   UNL     1     -11.244  28.559  -2.801  1.00  0.00     0.096 A 
ATOM      3  C   UNL     1      -9.207  29.388  -2.570  1.00  0.00     0.081 A 
ATOM      4  C   UNL     1      -9.149  29.101  -3.892  1.00  0.00     0.095 A 
ATOM      5  N   UNL     1     -10.437  29.146  -1.966  1.00  0.00    -0.241 NA
ATOM      6  S   UNL     1     -10.576  28.293  -4.373  1.00  0.00    -0.127 S 
BRANCH   3   7
ATOM      7  C   UNL     1      -8.133  29.916  -1.707  1.00  0.00     0.002 A 
ATOM      8  N   UNL     1      -5.265  31.537   0.770  1.00  0.00    -0.340 N 
ATOM      9  C   UNL     1      -6.126  30.842  -0.056  1.00  0.00     0.049 A 
ATOM     10  C   UNL     1      -5.664  32.861   0.824  1.00  0.00     0.054 A 
ATOM     11  C   UNL     1      -7.107  31.740  -0.519  1.00  0.00     0.004 A 
ATOM     12  C   UNL     1      -6.140  29.491  -0.385  1.00  0.00     0.027 A 
ATOM     13  C   UNL     1      -6.804  33.020   0.037  1.00  0.00    -0.014 A 
ATOM     14  C   UNL     1      -8.123  31.262  -1.354  1.00  0.00     0.021 A 
ATOM     15  C   UNL     1      -7.149  29.059  -1.218  1.00  0.00     0.012 A 
BRANCH   8  16
ATOM     16  C   UNL     1      -4.092  30.925   1.392  1.00  0.00     0.119 C 
ATOM     17  C   UNL     1      -2.940  30.931   0.429  1.00  0.00     0.027 C 
ENDBRANCH   8  16
BRANCH  10  18
ATOM     18  C   UNL     1      -4.932  33.911   1.537  1.00  0.00     0.025 A 
ATOM     19  C   UNL     1      -3.886  34.658   0.947  1.00  0.00     0.078 A 
ATOM     20  C   UNL     1      -5.277  34.171   2.862  1.00  0.00     0.039 A 
ATOM     21  N   UNL     1      -3.235  35.600   1.641  1.00  0.00    -0.256 NA
ATOM     22  C   UNL     1      -4.581  35.138   3.569  1.00  0.00     0.056 A 
ATOM     23  C   UNL     1      -3.576  35.837   2.920  1.00  0.00     0.137 A 
BRANCH  19  24
ATOM     24  C   UNL     1      -3.423  34.448  -0.485  1.00  0.00     0.164 C 
ATOM     25  C   UNL     1      -1.914  34.545  -0.544  1.00  0.00     0.045 C 
BRANCH  24  26
ATOM     26  O   UNL     1      -3.973  35.499  -1.279  1.00  0.00    -0.375 OA
ATOM     27  C   UNL     1      -4.674  35.041  -2.425  1.00  0.00     0.195 C 
ENDBRANCH  24  26
ENDBRANCH  19  24
BRANCH  22  28
ATOM     28  N   UNL     1      -4.916  35.432   4.880  1.00  0.00    -0.368 N 
ATOM     29  C   UNL     1      -3.971  36.084   5.799  1.00  0.00     0.132 C 
ATOM     30  C   UNL     1      -6.291  35.270   5.364  1.00  0.00     0.132 C 
ATOM     31  C   UNL     1      -4.186  35.693   7.245  1.00  0.00     0.105 C 
ATOM     32  C   UNL     1      -6.364  34.899   6.826  1.00  0.00     0.105 C 
ATOM     33  N   UNL     1      -5.588  35.841   7.625  1.00  0.00    -0.303 NA
ATOM     34  C   UNL     1      -5.777  35.576   9.052  1.00  0.00     0.105 C 
ENDBRANCH  22  28
ENDBRANCH  10  18
BRANCH  13  35
ATOM     35  C   UNL     1      -7.558  34.296  -0.216  1.00  0.00     0.048 C 
BRANCH  35  36
ATOM     36  C   UNL     1      -8.691  34.596   0.776  1.00  0.00     0.003 CG0
ATOM     37  C   UNL     1      -8.296  35.868   1.528  1.00  0.00     0.015 C 
ATOM     38  C   UNL     1      -8.851  33.459   1.791  1.00  0.00     0.015 C 
ATOM     39  G   UNL     1     -10.016  34.812   0.052  1.00  0.00     0.000 G0
ENDBRANCH  35  36
ENDBRANCH  13  35
ENDBRANCH   3   7
ENDBRANCH   1   2
BRANCH   1  40
ATOM     40  C   UNL     1     -13.524  29.327  -2.115  1.00  0.00     0.179 C 
BRANCH  40  41
ATOM     41  C   UNL     1     -13.738  30.131  -3.386  1.00  0.00     0.259 C 
ATOM     42  O   UNL     1     -14.237  29.640  -4.391  1.00  0.00    -0.271 OA
BRANCH  41  43
ATOM     43  N   UNL     1     -13.294  31.428  -3.400  1.00  0.00    -0.275 N 
ATOM     44  C   UNL     1     -12.845  32.133  -4.611  1.00  0.00     0.140 C 
ATOM     45  N   UNL     1     -13.220  32.148  -2.185  1.00  0.00    -0.218 NA
ATOM     46  C   UNL     1     -11.373  32.444  -4.424  1.00  0.00     0.025 C 
ATOM     47  C   UNL     1     -11.821  32.527  -1.929  1.00  0.00     0.184 C 
ATOM     48  C   UNL     1     -11.199  33.246  -3.138  1.00  0.00     0.035 C 
ATOM     49  H   UNL     1     -13.800  32.997  -2.252  1.00  0.00     0.149 HD
BRANCH  47  50
ATOM     50  C   UNL     1     -11.772  33.415  -0.712  1.00  0.00     0.324 C 
ATOM     51  O   UNL     1     -12.720  34.022  -0.272  1.00  0.00    -0.250 OA
BRANCH  50  52
ATOM     52  O   UNL     1     -10.545  33.459  -0.181  1.00  0.00    -0.464 OA
BRANCH  52  53
ATOM     53  C   UNL     1     -10.033  34.800   0.066  1.00  0.00     0.239 CG0
ATOM     54  G   UNL     1      -8.690  34.610   0.765  1.00  0.00     0.000 G0
ENDBRANCH  52  53
ENDBRANCH  50  52
ENDBRANCH  47  50
ENDBRANCH  41  43
ENDBRANCH  40  41
BRANCH  40  55
ATOM     55  N   UNL     1     -14.772  28.930  -1.486  1.00  0.00    -0.344 N 
ATOM     56  C   UNL     1     -15.460  29.770  -0.697  1.00  0.00     0.224 C 
ATOM     57  O   UNL     1     -14.972  30.799  -0.240  1.00  0.00    -0.275 OA
ATOM     58  H   UNL     1     -15.137  27.982  -1.650  1.00  0.00     0.164 HD
BRANCH  56  59
ATOM     59  C   UNL     1     -16.882  29.438  -0.477  1.00  0.00     0.081 C 
ATOM     60  C   UNL     1     -17.176  28.223   0.359  1.00  0.00     0.018 C 
ATOM     61  C   UNL     1     -17.437  29.566   0.935  1.00  0.00    -0.001 C 
ATOM     62  C   UNL     1     -18.853  30.046   1.176  1.00  0.00     0.008 C 
ENDBRANCH  56  59
ENDBRANCH  40  55
ENDBRANCH   1  40
TORSDOF 7
ENDMDL
MODEL 19
REMARK VINA RESULT:    -4.220      7.523     11.616
REMARK INTER + INTRA:         -12.650
REMARK INTER:                  -8.892
REMARK INTRA:                  -3.759
REMARK UNBOUND:                -4.236
REMARK SMILES CCn1c(-c2cc(N3CCN(C)CC3)cnc2[C@H](C)OC)c2c3cc(ccc31)-c1csc(n1)C[C@H](NC(=O)[C@H]1C[C@@H]1C)C(=O)N1CCC[C@H](N1)C(=O)OCC(C)(C)C2
REMARK SMILES IDX 34 1 32 2 29 3 30 4 33 5 31 6 25 7 3 8 28 9 4 10 23 11 27 12
REMARK SMILES IDX 22 13 24 14 26 15 2 16 1 17 5 18 17 19 6 20 16 21 7 22 15 23
REMARK SMILES IDX 18 24 19 25 20 26 21 27 8 28 14 29 9 30 13 31 10 32 11 33
REMARK SMILES IDX 12 34 58 35 55 36 56 37 57 38 35 40 43 41 44 42 45 43 46 44
REMARK SMILES IDX 50 45 47 46 49 47 48 48 51 50 52 51 53 52 54 53 36 55 37 56
REMARK SMILES IDX 38 57 39 59 40 60 41 61 42 62
REMARK H PARENT 50 49 36 58
REMARK Flexibility Score:  160.900
ROOT
ATOM      1  C   UNL     1     -17.692  31.637  -5.053  1.00  0.00     0.102 C 
ENDROOT
BRANCH   1   2
ATOM      2  C   UNL     1     -16.444  31.488  -5.867  1.00  0.00     0.096 A 
ATOM      3  C   UNL     1     -14.302  31.191  -6.327  1.00  0.00     0.081 A 
ATOM      4  C   UNL     1     -14.756  31.309  -7.597  1.00  0.00     0.095 A 
ATOM      5  N   UNL     1     -15.262  31.371  -5.336  1.00  0.00    -0.241 NA
ATOM      6  S   UNL     1     -16.462  31.418  -7.594  1.00  0.00    -0.127 S 
BRANCH   3   7
ATOM      7  C   UNL     1     -12.928  30.895  -5.877  1.00  0.00     0.002 A 
ATOM      8  N   UNL     1      -9.169  29.961  -4.467  1.00  0.00    -0.340 N 
ATOM      9  C   UNL     1     -10.348  30.305  -5.099  1.00  0.00     0.049 A 
ATOM     10  C   UNL     1      -9.413  29.814  -3.112  1.00  0.00     0.054 A 
ATOM     11  C   UNL     1     -11.366  30.355  -4.129  1.00  0.00     0.004 A 
ATOM     12  C   UNL     1     -10.596  30.525  -6.450  1.00  0.00     0.027 A 
ATOM     13  C   UNL     1     -10.765  30.048  -2.869  1.00  0.00    -0.014 A 
ATOM     14  C   UNL     1     -12.673  30.652  -4.532  1.00  0.00     0.021 A 
ATOM     15  C   UNL     1     -11.892  30.826  -6.808  1.00  0.00     0.012 A 
BRANCH   8  16
ATOM     16  C   UNL     1      -7.890  29.865  -5.166  1.00  0.00     0.119 C 
ATOM     17  C   UNL     1      -7.837  28.596  -5.968  1.00  0.00     0.027 C 
ENDBRANCH   8  16
BRANCH  10  18
ATOM     18  C   UNL     1      -8.374  29.535  -2.117  1.00  0.00     0.025 A 
ATOM     19  C   UNL     1      -7.649  30.554  -1.456  1.00  0.00     0.078 A 
ATOM     20  C   UNL     1      -8.082  28.205  -1.823  1.00  0.00     0.039 A 
ATOM     21  N   UNL     1      -6.697  30.253  -0.563  1.00  0.00    -0.256 NA
ATOM     22  C   UNL     1      -7.084  27.913  -0.908  1.00  0.00     0.056 A 
ATOM     23  C   UNL     1      -6.424  28.965  -0.291  1.00  0.00     0.137 A 
BRANCH  19  24
ATOM     24  C   UNL     1      -7.878  32.034  -1.710  1.00  0.00     0.164 C 
ATOM     25  C   UNL     1      -6.648  32.811  -1.295  1.00  0.00     0.045 C 
BRANCH  24  26
ATOM     26  O   UNL     1      -8.971  32.452  -0.892  1.00  0.00    -0.375 OA
ATOM     27  C   UNL     1      -8.696  33.613  -0.123  1.00  0.00     0.195 C 
ENDBRANCH  24  26
ENDBRANCH  19  24
BRANCH  22  28
ATOM     28  N   UNL     1      -6.787  26.601  -0.580  1.00  0.00    -0.368 N 
ATOM     29  C   UNL     1      -6.040  26.251   0.637  1.00  0.00     0.132 C 
ATOM     30  C   UNL     1      -7.359  25.484  -1.340  1.00  0.00     0.132 C 
ATOM     31  C   UNL     1      -5.223  24.987   0.486  1.00  0.00     0.105 C 
ATOM     32  C   UNL     1      -6.450  24.280  -1.396  1.00  0.00     0.105 C 
ATOM     33  N   UNL     1      -6.034  23.898  -0.051  1.00  0.00    -0.303 NA
ATOM     34  C   UNL     1      -5.277  22.646  -0.087  1.00  0.00     0.105 C 
ENDBRANCH  22  28
ENDBRANCH  10  18
BRANCH  13  35
ATOM     35  C   UNL     1     -11.464  30.025  -1.538  1.00  0.00     0.048 C 
BRANCH  35  36
ATOM     36  C   UNL     1     -12.373  28.811  -1.297  1.00  0.00     0.003 CG0
ATOM     37  C   UNL     1     -11.980  28.227   0.061  1.00  0.00     0.015 C 
ATOM     38  C   UNL     1     -12.160  27.739  -2.370  1.00  0.00     0.015 C 
ATOM     39  G   UNL     1     -13.844  29.218  -1.279  1.00  0.00     0.000 G0
ENDBRANCH  35  36
ENDBRANCH  13  35
ENDBRANCH   3   7
ENDBRANCH   1   2
BRANCH   1  40
ATOM     40  C   UNL     1     -17.819  30.504  -4.023  1.00  0.00     0.179 C 
BRANCH  40  41
ATOM     41  C   UNL     1     -18.606  31.004  -2.824  1.00  0.00     0.259 C 
ATOM     42  O   UNL     1     -19.831  31.044  -2.821  1.00  0.00    -0.271 OA
BRANCH  41  43
ATOM     43  N   UNL     1     -17.899  31.477  -1.750  1.00  0.00    -0.275 N 
ATOM     44  C   UNL     1     -17.568  32.896  -1.539  1.00  0.00     0.140 C 
ATOM     45  N   UNL     1     -17.414  30.565  -0.784  1.00  0.00    -0.218 NA
ATOM     46  C   UNL     1     -16.059  33.014  -1.606  1.00  0.00     0.025 C 
ATOM     47  C   UNL     1     -15.944  30.630  -0.749  1.00  0.00     0.184 C 
ATOM     48  C   UNL     1     -15.446  32.074  -0.572  1.00  0.00     0.035 C 
ATOM     49  H   UNL     1     -17.791  30.812   0.143  1.00  0.00     0.149 HD
BRANCH  47  50
ATOM     50  C   UNL     1     -15.445  29.764   0.380  1.00  0.00     0.324 C 
ATOM     51  O   UNL     1     -16.074  29.522   1.383  1.00  0.00    -0.250 OA
BRANCH  50  52
ATOM     52  O   UNL     1     -14.212  29.302   0.141  1.00  0.00    -0.464 OA
BRANCH  52  53
ATOM     53  C   UNL     1     -13.855  29.211  -1.268  1.00  0.00     0.239 CG0
ATOM     54  G   UNL     1     -12.384  28.807  -1.299  1.00  0.00     0.000 G0
ENDBRANCH  52  53
ENDBRANCH  50  52
ENDBRANCH  47  50
ENDBRANCH  41  43
ENDBRANCH  40  41
BRANCH  40  55
ATOM     55  N   UNL     1     -18.386  29.299  -4.603  1.00  0.00    -0.344 N 
ATOM     56  C   UNL     1     -17.703  28.144  -4.635  1.00  0.00     0.224 C 
ATOM     57  O   UNL     1     -16.493  28.085  -4.437  1.00  0.00    -0.275 OA
ATOM     58  H   UNL     1     -19.336  29.332  -4.999  1.00  0.00     0.164 HD
BRANCH  56  59
ATOM     59  C   UNL     1     -18.503  26.919  -4.833  1.00  0.00     0.081 C 
ATOM     60  C   UNL     1     -19.843  27.081  -5.495  1.00  0.00     0.018 C 
ATOM     61  C   UNL     1     -18.743  26.442  -6.258  1.00  0.00    -0.001 C 
ATOM     62  C   UNL     1     -18.783  24.965  -6.590  1.00  0.00     0.008 C 
ENDBRANCH  56  59
ENDBRANCH  40  55
ENDBRANCH   1  40
TORSDOF 7
ENDMDL
MODEL 20
REMARK VINA RESULT:    -4.140      1.858      2.533
REMARK INTER + INTRA:         -12.491
REMARK INTER:                  -8.967
REMARK INTRA:                  -3.524
REMARK UNBOUND:                -4.236
REMARK SMILES CCn1c(-c2cc(N3CCN(C)CC3)cnc2[C@H](C)OC)c2c3cc(ccc31)-c1csc(n1)C[C@H](NC(=O)[C@H]1C[C@@H]1C)C(=O)N1CCC[C@H](N1)C(=O)OCC(C)(C)C2
REMARK SMILES IDX 34 1 32 2 29 3 30 4 33 5 31 6 25 7 3 8 28 9 4 10 23 11 27 12
REMARK SMILES IDX 22 13 24 14 26 15 2 16 1 17 5 18 17 19 6 20 16 21 7 22 15 23
REMARK SMILES IDX 18 24 19 25 20 26 21 27 8 28 14 29 9 30 13 31 10 32 11 33
REMARK SMILES IDX 12 34 58 35 55 36 56 37 57 38 35 40 43 41 44 42 45 43 46 44
REMARK SMILES IDX 50 45 47 46 49 47 48 48 51 50 52 51 53 52 54 53 36 55 37 56
REMARK SMILES IDX 38 57 39 59 40 60 41 61 42 62
REMARK H PARENT 50 49 36 58
REMARK Flexibility Score:  160.900
ROOT
ATOM      1  C   UNL     1     -23.510  22.101   1.682  1.00  0.00     0.102 C 
ENDROOT
BRANCH   1   2
ATOM      2  C   UNL     1     -23.764  23.167   0.663  1.00  0.00     0.096 A 
ATOM      3  C   UNL     1     -23.352  24.843  -0.720  1.00  0.00     0.081 A 
ATOM      4  C   UNL     1     -24.677  24.712  -0.967  1.00  0.00     0.095 A 
ATOM      5  N   UNL     1     -22.849  24.006   0.271  1.00  0.00    -0.241 NA
ATOM      6  S   UNL     1     -25.294  23.360  -0.121  1.00  0.00    -0.127 S 
BRANCH   3   7
ATOM      7  C   UNL     1     -22.393  25.755  -1.372  1.00  0.00     0.002 A 
ATOM      8  N   UNL     1     -19.610  28.313  -3.015  1.00  0.00    -0.340 N 
ATOM      9  C   UNL     1     -20.578  27.405  -2.635  1.00  0.00     0.049 A 
ATOM     10  C   UNL     1     -19.220  29.044  -1.906  1.00  0.00     0.054 A 
ATOM     11  C   UNL     1     -20.790  27.545  -1.251  1.00  0.00     0.004 A 
ATOM     12  C   UNL     1     -21.239  26.445  -3.395  1.00  0.00     0.027 A 
ATOM     13  C   UNL     1     -19.930  28.591  -0.795  1.00  0.00    -0.014 A 
ATOM     14  C   UNL     1     -21.711  26.703  -0.617  1.00  0.00     0.021 A 
ATOM     15  C   UNL     1     -22.145  25.642  -2.739  1.00  0.00     0.012 A 
BRANCH   8  16
ATOM     16  C   UNL     1     -19.174  28.479  -4.400  1.00  0.00     0.119 C 
ATOM     17  C   UNL     1     -17.983  27.604  -4.671  1.00  0.00     0.027 C 
ENDBRANCH   8  16
BRANCH  10  18
ATOM     18  C   UNL     1     -18.269  30.159  -1.950  1.00  0.00     0.025 A 
ATOM     19  C   UNL     1     -18.664  31.497  -2.177  1.00  0.00     0.078 A 
ATOM     20  C   UNL     1     -16.916  29.878  -1.774  1.00  0.00     0.039 A 
ATOM     21  N   UNL     1     -17.759  32.484  -2.223  1.00  0.00    -0.256 NA
ATOM     22  C   UNL     1     -15.993  30.909  -1.841  1.00  0.00     0.056 A 
ATOM     23  C   UNL     1     -16.456  32.198  -2.054  1.00  0.00     0.137 A 
BRANCH  19  24
ATOM     24  C   UNL     1     -20.110  31.911  -2.393  1.00  0.00     0.164 C 
ATOM     25  C   UNL     1     -20.404  31.954  -3.877  1.00  0.00     0.045 C 
BRANCH  24  26
ATOM     26  O   UNL     1     -20.269  33.228  -1.865  1.00  0.00    -0.375 OA
ATOM     27  C   UNL     1     -20.492  34.217  -2.858  1.00  0.00     0.195 C 
ENDBRANCH  24  26
ENDBRANCH  19  24
BRANCH  22  28
ATOM     28  N   UNL     1     -14.644  30.664  -1.648  1.00  0.00    -0.368 N 
ATOM     29  C   UNL     1     -13.739  31.678  -1.087  1.00  0.00     0.132 C 
ATOM     30  C   UNL     1     -14.087  29.319  -1.827  1.00  0.00     0.132 C 
ATOM     31  C   UNL     1     -12.318  31.546  -1.591  1.00  0.00     0.105 C 
ATOM     32  C   UNL     1     -12.657  29.330  -2.314  1.00  0.00     0.105 C 
ATOM     33  N   UNL     1     -11.838  30.174  -1.452  1.00  0.00    -0.303 NA
ATOM     34  C   UNL     1     -10.427  30.070  -1.829  1.00  0.00     0.105 C 
ENDBRANCH  22  28
ENDBRANCH  10  18
BRANCH  13  35
ATOM     35  C   UNL     1     -19.846  29.119   0.610  1.00  0.00     0.048 C 
BRANCH  35  36
ATOM     36  C   UNL     1     -18.967  28.299   1.566  1.00  0.00     0.003 CG0
ATOM     37  C   UNL     1     -18.543  29.241   2.694  1.00  0.00     0.015 C 
ATOM     38  C   UNL     1     -17.709  27.788   0.858  1.00  0.00     0.015 C 
ATOM     39  G   UNL     1     -19.735  27.113   2.142  1.00  0.00     0.000 G0
ENDBRANCH  35  36
ENDBRANCH  13  35
ENDBRANCH   3   7
ENDBRANCH   1   2
BRANCH   1  40
ATOM     40  C   UNL     1     -22.466  22.559   2.712  1.00  0.00     0.179 C 
BRANCH  40  41
ATOM     41  C   UNL     1     -23.167  22.893   4.018  1.00  0.00     0.259 C 
ATOM     42  O   UNL     1     -24.248  22.402   4.321  1.00  0.00    -0.271 OA
BRANCH  41  43
ATOM     43  N   UNL     1     -22.578  23.822   4.836  1.00  0.00    -0.275 N 
ATOM     44  C   UNL     1     -23.281  24.532   5.917  1.00  0.00     0.140 C 
ATOM     45  N   UNL     1     -21.221  24.164   4.632  1.00  0.00    -0.218 NA
ATOM     46  C   UNL     1     -23.294  26.002   5.546  1.00  0.00     0.025 C 
ATOM     47  C   UNL     1     -21.127  25.594   4.295  1.00  0.00     0.184 C 
ATOM     48  C   UNL     1     -21.858  26.468   5.327  1.00  0.00     0.035 C 
ATOM     49  H   UNL     1     -20.686  23.977   5.492  1.00  0.00     0.149 HD
BRANCH  47  50
ATOM     50  C   UNL     1     -19.671  25.981   4.222  1.00  0.00     0.324 C 
ATOM     51  O   UNL     1     -18.767  25.326   4.683  1.00  0.00    -0.250 OA
BRANCH  50  52
ATOM     52  O   UNL     1     -19.502  27.149   3.591  1.00  0.00    -0.464 OA
BRANCH  52  53
ATOM     53  C   UNL     1     -19.720  27.104   2.151  1.00  0.00     0.239 CG0
ATOM     54  G   UNL     1     -18.964  28.299   1.579  1.00  0.00     0.000 G0
ENDBRANCH  52  53
ENDBRANCH  50  52
ENDBRANCH  47  50
ENDBRANCH  41  43
ENDBRANCH  40  41
BRANCH  40  55
ATOM     55  N   UNL     1     -21.401  21.586   2.880  1.00  0.00    -0.344 N 
ATOM     56  C   UNL     1     -20.122  21.886   2.602  1.00  0.00     0.224 C 
ATOM     57  O   UNL     1     -19.802  22.874   1.949  1.00  0.00    -0.275 OA
ATOM     58  H   UNL     1     -21.633  20.642   3.222  1.00  0.00     0.164 HD
BRANCH  56  59
ATOM     59  C   UNL     1     -19.101  21.008   3.207  1.00  0.00     0.081 C 
ATOM     60  C   UNL     1     -18.839  19.696   2.521  1.00  0.00     0.018 C 
ATOM     61  C   UNL     1     -17.814  20.765   2.430  1.00  0.00    -0.001 C 
ATOM     62  C   UNL     1     -16.486  20.631   3.144  1.00  0.00     0.008 C 
ENDBRANCH  56  59
ENDBRANCH  40  55
ENDBRANCH   1  40
TORSDOF 7
ENDMDL
